<?xml version="1.0" encoding="UTF-8"?>

<!-- generated on 08/01/19 22:59:53 by Eclipse SUMO Version 1.2.0
<configuration xmlns:xsi="http://www.w3.org/2001/XMLSchema-instance" xsi:noNamespaceSchemaLocation="http://sumo.dlr.de/xsd/sumoConfiguration.xsd">

    <input>
        <net-file value="./Project/ramp.net.xml"/>
        <route-files value="./Project/ramp.rou.xml"/>
        <additional-files value="./Project/ramp.add.xml"/>
    </input>

    <output>
        <netstate-dump value="./Project/Output/Traj/traj_nn_20.xml"/>
    </output>

    <time>
        <begin value="0"/>
        <end value="9300"/>
    </time>

    <processing>
        <emergencydecel.warning-threshold value="1.2"/>
    </processing>

    <report>
        <verbose value="true"/>
        <no-step-log value="true"/>
    </report>

    <traci_server>
        <remote-port value="55898"/>
    </traci_server>

    <random_number>
        <seed value="27851656"/>
    </random_number>

    <gui_only>
        <gui-settings-file value="./Project/jiaoke.xml"/>
        <quit-on-end value="true"/>
        <start value="true"/>
    </gui_only>

</configuration>
-->

<detector xmlns:xsi="http://www.w3.org/2001/XMLSchema-instance" xsi:noNamespaceSchemaLocation="http://sumo.dlr.de/xsd/det_e2_file.xsd">
   <interval begin="0.00" end="60.00" id="obs_merging_0" sampledSeconds="0.00" nVehEntered="0" nVehLeft="0" nVehSeen="0" meanSpeed="-1.00" meanTimeLoss="-1.00" meanOccupancy="0.00" maxOccupancy="0.00" meanMaxJamLengthInVehicles="0.00" meanMaxJamLengthInMeters="0.00" maxJamLengthInVehicles="0" maxJamLengthInMeters="0.00" jamLengthInVehiclesSum="0" jamLengthInMetersSum="0.00" meanHaltingDuration="0.00" maxHaltingDuration="0.00" haltingDurationSum="0.00" meanIntervalHaltingDuration="0.00" maxIntervalHaltingDuration="0.00" intervalHaltingDurationSum="0.00" startedHalts="0.00" meanVehicleNumber="0.00" maxVehicleNumber="0" />
   <interval begin="0.00" end="60.00" id="obs_merging_1" sampledSeconds="0.00" nVehEntered="0" nVehLeft="0" nVehSeen="0" meanSpeed="-1.00" meanTimeLoss="-1.00" meanOccupancy="0.00" maxOccupancy="0.00" meanMaxJamLengthInVehicles="0.00" meanMaxJamLengthInMeters="0.00" maxJamLengthInVehicles="0" maxJamLengthInMeters="0.00" jamLengthInVehiclesSum="0" jamLengthInMetersSum="0.00" meanHaltingDuration="0.00" maxHaltingDuration="0.00" haltingDurationSum="0.00" meanIntervalHaltingDuration="0.00" maxIntervalHaltingDuration="0.00" intervalHaltingDurationSum="0.00" startedHalts="0.00" meanVehicleNumber="0.00" maxVehicleNumber="0" />
   <interval begin="0.00" end="60.00" id="obs_merging_2" sampledSeconds="0.00" nVehEntered="0" nVehLeft="0" nVehSeen="0" meanSpeed="-1.00" meanTimeLoss="-1.00" meanOccupancy="0.00" maxOccupancy="0.00" meanMaxJamLengthInVehicles="0.00" meanMaxJamLengthInMeters="0.00" maxJamLengthInVehicles="0" maxJamLengthInMeters="0.00" jamLengthInVehiclesSum="0" jamLengthInMetersSum="0.00" meanHaltingDuration="0.00" maxHaltingDuration="0.00" haltingDurationSum="0.00" meanIntervalHaltingDuration="0.00" maxIntervalHaltingDuration="0.00" intervalHaltingDurationSum="0.00" startedHalts="0.00" meanVehicleNumber="0.00" maxVehicleNumber="0" />
   <interval begin="0.00" end="60.00" id="obs_merging_3" sampledSeconds="0.00" nVehEntered="0" nVehLeft="0" nVehSeen="0" meanSpeed="-1.00" meanTimeLoss="-1.00" meanOccupancy="0.00" maxOccupancy="0.00" meanMaxJamLengthInVehicles="0.00" meanMaxJamLengthInMeters="0.00" maxJamLengthInVehicles="0" maxJamLengthInMeters="0.00" jamLengthInVehiclesSum="0" jamLengthInMetersSum="0.00" meanHaltingDuration="0.00" maxHaltingDuration="0.00" haltingDurationSum="0.00" meanIntervalHaltingDuration="0.00" maxIntervalHaltingDuration="0.00" intervalHaltingDurationSum="0.00" startedHalts="0.00" meanVehicleNumber="0.00" maxVehicleNumber="0" />
   <interval begin="0.00" end="60.00" id="obs_ramp" sampledSeconds="35.67" nVehEntered="3" nVehLeft="0" nVehSeen="3" meanSpeed="10.70" meanTimeLoss="0.38" meanOccupancy="0.30" maxOccupancy="1.50" meanMaxJamLengthInVehicles="0.00" meanMaxJamLengthInMeters="0.00" maxJamLengthInVehicles="0" maxJamLengthInMeters="0.00" jamLengthInVehiclesSum="0" jamLengthInMetersSum="0.00" meanHaltingDuration="0.00" maxHaltingDuration="0.00" haltingDurationSum="0.00" meanIntervalHaltingDuration="0.00" maxIntervalHaltingDuration="0.00" intervalHaltingDurationSum="0.00" startedHalts="0.00" meanVehicleNumber="0.62" maxVehicleNumber="3" />
   <interval begin="0.00" end="60.00" id="obs_mainline_0" sampledSeconds="0.00" nVehEntered="0" nVehLeft="0" nVehSeen="0" meanSpeed="-1.00" meanTimeLoss="-1.00" meanOccupancy="0.00" maxOccupancy="0.00" meanMaxJamLengthInVehicles="0.00" meanMaxJamLengthInMeters="0.00" maxJamLengthInVehicles="0" maxJamLengthInMeters="0.00" jamLengthInVehiclesSum="0" jamLengthInMetersSum="0.00" meanHaltingDuration="0.00" maxHaltingDuration="0.00" haltingDurationSum="0.00" meanIntervalHaltingDuration="0.00" maxIntervalHaltingDuration="0.00" intervalHaltingDurationSum="0.00" startedHalts="0.00" meanVehicleNumber="0.00" maxVehicleNumber="0" />
   <interval begin="0.00" end="60.00" id="obs_mainline_1" sampledSeconds="0.00" nVehEntered="0" nVehLeft="0" nVehSeen="0" meanSpeed="-1.00" meanTimeLoss="-1.00" meanOccupancy="0.00" maxOccupancy="0.00" meanMaxJamLengthInVehicles="0.00" meanMaxJamLengthInMeters="0.00" maxJamLengthInVehicles="0" maxJamLengthInMeters="0.00" jamLengthInVehiclesSum="0" jamLengthInMetersSum="0.00" meanHaltingDuration="0.00" maxHaltingDuration="0.00" haltingDurationSum="0.00" meanIntervalHaltingDuration="0.00" maxIntervalHaltingDuration="0.00" intervalHaltingDurationSum="0.00" startedHalts="0.00" meanVehicleNumber="0.00" maxVehicleNumber="0" />
   <interval begin="0.00" end="60.00" id="obs_mainline_2" sampledSeconds="0.00" nVehEntered="0" nVehLeft="0" nVehSeen="0" meanSpeed="-1.00" meanTimeLoss="-1.00" meanOccupancy="0.00" maxOccupancy="0.00" meanMaxJamLengthInVehicles="0.00" meanMaxJamLengthInMeters="0.00" maxJamLengthInVehicles="0" maxJamLengthInMeters="0.00" jamLengthInVehiclesSum="0" jamLengthInMetersSum="0.00" meanHaltingDuration="0.00" maxHaltingDuration="0.00" haltingDurationSum="0.00" meanIntervalHaltingDuration="0.00" maxIntervalHaltingDuration="0.00" intervalHaltingDurationSum="0.00" startedHalts="0.00" meanVehicleNumber="0.00" maxVehicleNumber="0" />
   <interval begin="60.00" end="120.00" id="obs_merging_0" sampledSeconds="0.00" nVehEntered="0" nVehLeft="0" nVehSeen="0" meanSpeed="-1.00" meanTimeLoss="-1.00" meanOccupancy="0.00" maxOccupancy="0.00" meanMaxJamLengthInVehicles="0.00" meanMaxJamLengthInMeters="0.00" maxJamLengthInVehicles="0" maxJamLengthInMeters="0.00" jamLengthInVehiclesSum="0" jamLengthInMetersSum="0.00" meanHaltingDuration="0.00" maxHaltingDuration="0.00" haltingDurationSum="0.00" meanIntervalHaltingDuration="0.00" maxIntervalHaltingDuration="0.00" intervalHaltingDurationSum="0.00" startedHalts="0.00" meanVehicleNumber="0.00" maxVehicleNumber="0" />
   <interval begin="60.00" end="120.00" id="obs_merging_1" sampledSeconds="0.00" nVehEntered="0" nVehLeft="0" nVehSeen="0" meanSpeed="-1.00" meanTimeLoss="-1.00" meanOccupancy="0.00" maxOccupancy="0.00" meanMaxJamLengthInVehicles="0.00" meanMaxJamLengthInMeters="0.00" maxJamLengthInVehicles="0" maxJamLengthInMeters="0.00" jamLengthInVehiclesSum="0" jamLengthInMetersSum="0.00" meanHaltingDuration="0.00" maxHaltingDuration="0.00" haltingDurationSum="0.00" meanIntervalHaltingDuration="0.00" maxIntervalHaltingDuration="0.00" intervalHaltingDurationSum="0.00" startedHalts="0.00" meanVehicleNumber="0.00" maxVehicleNumber="0" />
   <interval begin="60.00" end="120.00" id="obs_merging_2" sampledSeconds="0.00" nVehEntered="0" nVehLeft="0" nVehSeen="0" meanSpeed="-1.00" meanTimeLoss="-1.00" meanOccupancy="0.00" maxOccupancy="0.00" meanMaxJamLengthInVehicles="0.00" meanMaxJamLengthInMeters="0.00" maxJamLengthInVehicles="0" maxJamLengthInMeters="0.00" jamLengthInVehiclesSum="0" jamLengthInMetersSum="0.00" meanHaltingDuration="0.00" maxHaltingDuration="0.00" haltingDurationSum="0.00" meanIntervalHaltingDuration="0.00" maxIntervalHaltingDuration="0.00" intervalHaltingDurationSum="0.00" startedHalts="0.00" meanVehicleNumber="0.00" maxVehicleNumber="0" />
   <interval begin="60.00" end="120.00" id="obs_merging_3" sampledSeconds="4.81" nVehEntered="2" nVehLeft="0" nVehSeen="2" meanSpeed="20.78" meanTimeLoss="0.08" meanOccupancy="0.33" maxOccupancy="6.67" meanMaxJamLengthInVehicles="0.00" meanMaxJamLengthInMeters="0.00" maxJamLengthInVehicles="0" maxJamLengthInMeters="0.00" jamLengthInVehiclesSum="0" jamLengthInMetersSum="0.00" meanHaltingDuration="0.00" maxHaltingDuration="0.00" haltingDurationSum="0.00" meanIntervalHaltingDuration="0.00" maxIntervalHaltingDuration="0.00" intervalHaltingDurationSum="0.00" startedHalts="0.00" meanVehicleNumber="0.10" maxVehicleNumber="2" />
   <interval begin="60.00" end="120.00" id="obs_ramp" sampledSeconds="315.39" nVehEntered="5" nVehLeft="0" nVehSeen="8" meanSpeed="10.16" meanTimeLoss="2.58" meanOccupancy="2.64" maxOccupancy="4.00" meanMaxJamLengthInVehicles="0.00" meanMaxJamLengthInMeters="0.00" maxJamLengthInVehicles="0" maxJamLengthInMeters="0.00" jamLengthInVehiclesSum="0" jamLengthInMetersSum="0.00" meanHaltingDuration="0.00" maxHaltingDuration="0.00" haltingDurationSum="0.00" meanIntervalHaltingDuration="0.00" maxIntervalHaltingDuration="0.00" intervalHaltingDurationSum="0.00" startedHalts="0.00" meanVehicleNumber="5.30" maxVehicleNumber="8" />
   <interval begin="60.00" end="120.00" id="obs_mainline_0" sampledSeconds="227.62" nVehEntered="26" nVehLeft="17" nVehSeen="26" meanSpeed="18.55" meanTimeLoss="0.98" meanOccupancy="1.92" maxOccupancy="5.50" meanMaxJamLengthInVehicles="0.00" meanMaxJamLengthInMeters="0.00" maxJamLengthInVehicles="0" maxJamLengthInMeters="0.00" jamLengthInVehiclesSum="0" jamLengthInMetersSum="0.00" meanHaltingDuration="0.00" maxHaltingDuration="0.00" haltingDurationSum="0.00" meanIntervalHaltingDuration="0.00" maxIntervalHaltingDuration="0.00" intervalHaltingDurationSum="0.00" startedHalts="0.00" meanVehicleNumber="3.85" maxVehicleNumber="11" />
   <interval begin="60.00" end="120.00" id="obs_mainline_1" sampledSeconds="324.01" nVehEntered="49" nVehLeft="37" nVehSeen="49" meanSpeed="18.74" meanTimeLoss="0.75" meanOccupancy="2.75" maxOccupancy="7.50" meanMaxJamLengthInVehicles="0.00" meanMaxJamLengthInMeters="0.00" maxJamLengthInVehicles="0" maxJamLengthInMeters="0.00" jamLengthInVehiclesSum="0" jamLengthInMetersSum="0.00" meanHaltingDuration="0.00" maxHaltingDuration="0.00" haltingDurationSum="0.00" meanIntervalHaltingDuration="0.00" maxIntervalHaltingDuration="0.00" intervalHaltingDurationSum="0.00" startedHalts="0.00" meanVehicleNumber="5.52" maxVehicleNumber="15" />
   <interval begin="60.00" end="120.00" id="obs_mainline_2" sampledSeconds="441.74" nVehEntered="34" nVehLeft="20" nVehSeen="34" meanSpeed="20.26" meanTimeLoss="0.91" meanOccupancy="3.71" maxOccupancy="8.50" meanMaxJamLengthInVehicles="0.00" meanMaxJamLengthInMeters="0.00" maxJamLengthInVehicles="0" maxJamLengthInMeters="0.00" jamLengthInVehiclesSum="0" jamLengthInMetersSum="0.00" meanHaltingDuration="0.00" maxHaltingDuration="0.00" haltingDurationSum="0.00" meanIntervalHaltingDuration="0.00" maxIntervalHaltingDuration="0.00" intervalHaltingDurationSum="0.00" startedHalts="0.00" meanVehicleNumber="7.45" maxVehicleNumber="17" />
   <interval begin="120.00" end="180.00" id="obs_merging_0" sampledSeconds="26.01" nVehEntered="16" nVehLeft="16" nVehSeen="16" meanSpeed="14.84" meanTimeLoss="0.49" meanOccupancy="1.32" maxOccupancy="6.67" meanMaxJamLengthInVehicles="0.00" meanMaxJamLengthInMeters="0.00" maxJamLengthInVehicles="0" maxJamLengthInMeters="0.00" jamLengthInVehiclesSum="0" jamLengthInMetersSum="0.00" meanHaltingDuration="0.00" maxHaltingDuration="0.00" haltingDurationSum="0.00" meanIntervalHaltingDuration="0.00" maxIntervalHaltingDuration="0.00" intervalHaltingDurationSum="0.00" startedHalts="0.00" meanVehicleNumber="0.65" maxVehicleNumber="2" />
   <interval begin="120.00" end="180.00" id="obs_merging_1" sampledSeconds="95.87" nVehEntered="16" nVehLeft="15" nVehSeen="16" meanSpeed="18.71" meanTimeLoss="0.61" meanOccupancy="5.03" maxOccupancy="10.01" meanMaxJamLengthInVehicles="0.00" meanMaxJamLengthInMeters="0.00" maxJamLengthInVehicles="0" maxJamLengthInMeters="0.00" jamLengthInVehiclesSum="0" jamLengthInMetersSum="0.00" meanHaltingDuration="0.00" maxHaltingDuration="0.00" haltingDurationSum="0.00" meanIntervalHaltingDuration="0.00" maxIntervalHaltingDuration="0.00" intervalHaltingDurationSum="0.00" startedHalts="0.00" meanVehicleNumber="1.77" maxVehicleNumber="4" />
   <interval begin="120.00" end="180.00" id="obs_merging_2" sampledSeconds="117.16" nVehEntered="23" nVehLeft="19" nVehSeen="23" meanSpeed="19.53" meanTimeLoss="0.40" meanOccupancy="6.55" maxOccupancy="13.34" meanMaxJamLengthInVehicles="0.00" meanMaxJamLengthInMeters="0.00" maxJamLengthInVehicles="0" maxJamLengthInMeters="0.00" jamLengthInVehiclesSum="0" jamLengthInMetersSum="0.00" meanHaltingDuration="0.00" maxHaltingDuration="0.00" haltingDurationSum="0.00" meanIntervalHaltingDuration="0.00" maxIntervalHaltingDuration="0.00" intervalHaltingDurationSum="0.00" startedHalts="0.00" meanVehicleNumber="2.22" maxVehicleNumber="5" />
   <interval begin="120.00" end="180.00" id="obs_merging_3" sampledSeconds="148.07" nVehEntered="25" nVehLeft="23" nVehSeen="27" meanSpeed="21.00" meanTimeLoss="0.25" meanOccupancy="7.91" maxOccupancy="13.34" meanMaxJamLengthInVehicles="0.00" meanMaxJamLengthInMeters="0.00" maxJamLengthInVehicles="0" maxJamLengthInMeters="0.00" jamLengthInVehiclesSum="0" jamLengthInMetersSum="0.00" meanHaltingDuration="0.00" maxHaltingDuration="0.00" haltingDurationSum="0.00" meanIntervalHaltingDuration="0.00" maxIntervalHaltingDuration="0.00" intervalHaltingDurationSum="0.00" startedHalts="0.00" meanVehicleNumber="2.73" maxVehicleNumber="5" />
   <interval begin="120.00" end="180.00" id="obs_ramp" sampledSeconds="549.68" nVehEntered="6" nVehLeft="3" nVehSeen="14" meanSpeed="9.89" meanTimeLoss="2.93" meanOccupancy="4.57" maxOccupancy="5.50" meanMaxJamLengthInVehicles="0.00" meanMaxJamLengthInMeters="0.00" maxJamLengthInVehicles="0" maxJamLengthInMeters="0.00" jamLengthInVehiclesSum="0" jamLengthInMetersSum="0.00" meanHaltingDuration="0.00" maxHaltingDuration="0.00" haltingDurationSum="0.00" meanIntervalHaltingDuration="0.00" maxIntervalHaltingDuration="0.00" intervalHaltingDurationSum="0.00" startedHalts="0.00" meanVehicleNumber="9.23" maxVehicleNumber="11" />
   <interval begin="120.00" end="180.00" id="obs_mainline_0" sampledSeconds="656.57" nVehEntered="130" nVehLeft="124" nVehSeen="139" meanSpeed="18.69" meanTimeLoss="0.50" meanOccupancy="5.46" maxOccupancy="8.60" meanMaxJamLengthInVehicles="0.00" meanMaxJamLengthInMeters="0.00" maxJamLengthInVehicles="0" maxJamLengthInMeters="0.00" jamLengthInVehiclesSum="0" jamLengthInMetersSum="0.00" meanHaltingDuration="0.00" maxHaltingDuration="0.00" haltingDurationSum="0.00" meanIntervalHaltingDuration="0.00" maxIntervalHaltingDuration="0.00" intervalHaltingDurationSum="0.00" startedHalts="0.00" meanVehicleNumber="11.13" maxVehicleNumber="18" />
   <interval begin="120.00" end="180.00" id="obs_mainline_1" sampledSeconds="1134.72" nVehEntered="163" nVehLeft="156" nVehSeen="175" meanSpeed="18.66" meanTimeLoss="0.74" meanOccupancy="9.41" maxOccupancy="12.00" meanMaxJamLengthInVehicles="0.00" meanMaxJamLengthInMeters="0.00" maxJamLengthInVehicles="0" maxJamLengthInMeters="0.00" jamLengthInVehiclesSum="0" jamLengthInMetersSum="0.00" meanHaltingDuration="0.00" maxHaltingDuration="0.00" haltingDurationSum="0.00" meanIntervalHaltingDuration="0.00" maxIntervalHaltingDuration="0.00" intervalHaltingDurationSum="0.00" startedHalts="0.00" meanVehicleNumber="19.15" maxVehicleNumber="24" />
   <interval begin="120.00" end="180.00" id="obs_mainline_2" sampledSeconds="1218.88" nVehEntered="55" nVehLeft="47" nVehSeen="69" meanSpeed="19.90" meanTimeLoss="1.34" meanOccupancy="10.16" maxOccupancy="11.50" meanMaxJamLengthInVehicles="0.00" meanMaxJamLengthInMeters="0.00" maxJamLengthInVehicles="0" maxJamLengthInMeters="0.00" jamLengthInVehiclesSum="0" jamLengthInMetersSum="0.00" meanHaltingDuration="0.00" maxHaltingDuration="0.00" haltingDurationSum="0.00" meanIntervalHaltingDuration="0.00" maxIntervalHaltingDuration="0.00" intervalHaltingDurationSum="0.00" startedHalts="0.00" meanVehicleNumber="20.77" maxVehicleNumber="24" />
   <interval begin="180.00" end="240.00" id="obs_merging_0" sampledSeconds="28.95" nVehEntered="25" nVehLeft="25" nVehSeen="25" meanSpeed="14.19" meanTimeLoss="0.35" meanOccupancy="1.41" maxOccupancy="6.67" meanMaxJamLengthInVehicles="0.00" meanMaxJamLengthInMeters="0.00" maxJamLengthInVehicles="0" maxJamLengthInMeters="0.00" jamLengthInVehiclesSum="0" jamLengthInMetersSum="0.00" meanHaltingDuration="0.00" maxHaltingDuration="0.00" haltingDurationSum="0.00" meanIntervalHaltingDuration="0.00" maxIntervalHaltingDuration="0.00" intervalHaltingDurationSum="0.00" startedHalts="0.00" meanVehicleNumber="0.83" maxVehicleNumber="3" />
   <interval begin="180.00" end="240.00" id="obs_merging_1" sampledSeconds="183.33" nVehEntered="35" nVehLeft="30" nVehSeen="36" meanSpeed="16.08" meanTimeLoss="1.12" meanOccupancy="9.75" maxOccupancy="20.01" meanMaxJamLengthInVehicles="0.00" meanMaxJamLengthInMeters="0.00" maxJamLengthInVehicles="0" maxJamLengthInMeters="0.00" jamLengthInVehiclesSum="0" jamLengthInMetersSum="0.00" meanHaltingDuration="0.00" maxHaltingDuration="0.00" haltingDurationSum="0.00" meanIntervalHaltingDuration="0.00" maxIntervalHaltingDuration="0.00" intervalHaltingDurationSum="0.00" startedHalts="0.00" meanVehicleNumber="3.33" maxVehicleNumber="6" />
   <interval begin="180.00" end="240.00" id="obs_merging_2" sampledSeconds="209.61" nVehEntered="41" nVehLeft="41" nVehSeen="45" meanSpeed="17.80" meanTimeLoss="0.69" meanOccupancy="11.23" maxOccupancy="16.68" meanMaxJamLengthInVehicles="0.00" meanMaxJamLengthInMeters="0.00" maxJamLengthInVehicles="0" maxJamLengthInMeters="0.00" jamLengthInVehiclesSum="0" jamLengthInMetersSum="0.00" meanHaltingDuration="0.00" maxHaltingDuration="0.00" haltingDurationSum="0.00" meanIntervalHaltingDuration="0.00" maxIntervalHaltingDuration="0.00" intervalHaltingDurationSum="0.00" startedHalts="0.00" meanVehicleNumber="3.85" maxVehicleNumber="6" />
   <interval begin="180.00" end="240.00" id="obs_merging_3" sampledSeconds="217.03" nVehEntered="31" nVehLeft="31" nVehSeen="35" meanSpeed="19.27" meanTimeLoss="0.69" meanOccupancy="11.57" maxOccupancy="14.04" meanMaxJamLengthInVehicles="0.00" meanMaxJamLengthInMeters="0.00" maxJamLengthInVehicles="0" maxJamLengthInMeters="0.00" jamLengthInVehiclesSum="0" jamLengthInMetersSum="0.00" meanHaltingDuration="0.00" maxHaltingDuration="0.00" haltingDurationSum="0.00" meanIntervalHaltingDuration="0.00" maxIntervalHaltingDuration="0.00" intervalHaltingDurationSum="0.00" startedHalts="0.00" meanVehicleNumber="4.05" maxVehicleNumber="5" />
   <interval begin="180.00" end="240.00" id="obs_ramp" sampledSeconds="597.65" nVehEntered="6" nVehLeft="7" nVehSeen="17" meanSpeed="9.77" meanTimeLoss="2.61" meanOccupancy="4.95" maxOccupancy="5.66" meanMaxJamLengthInVehicles="0.00" meanMaxJamLengthInMeters="0.00" maxJamLengthInVehicles="0" maxJamLengthInMeters="0.00" jamLengthInVehiclesSum="0" jamLengthInMetersSum="0.00" meanHaltingDuration="0.00" maxHaltingDuration="0.00" haltingDurationSum="0.00" meanIntervalHaltingDuration="0.00" maxIntervalHaltingDuration="0.00" intervalHaltingDurationSum="0.00" startedHalts="0.00" meanVehicleNumber="10.08" maxVehicleNumber="12" />
   <interval begin="180.00" end="240.00" id="obs_mainline_0" sampledSeconds="1170.65" nVehEntered="109" nVehLeft="106" nVehSeen="124" meanSpeed="17.28" meanTimeLoss="1.58" meanOccupancy="9.74" maxOccupancy="11.50" meanMaxJamLengthInVehicles="0.00" meanMaxJamLengthInMeters="0.00" maxJamLengthInVehicles="0" maxJamLengthInMeters="0.00" jamLengthInVehiclesSum="0" jamLengthInMetersSum="0.00" meanHaltingDuration="0.00" maxHaltingDuration="0.00" haltingDurationSum="0.00" meanIntervalHaltingDuration="0.00" maxIntervalHaltingDuration="0.00" intervalHaltingDurationSum="0.00" startedHalts="0.00" meanVehicleNumber="19.80" maxVehicleNumber="23" />
   <interval begin="180.00" end="240.00" id="obs_mainline_1" sampledSeconds="1450.02" nVehEntered="147" nVehLeft="147" nVehSeen="166" meanSpeed="17.90" meanTimeLoss="1.43" meanOccupancy="12.03" maxOccupancy="14.00" meanMaxJamLengthInVehicles="0.00" meanMaxJamLengthInMeters="0.00" maxJamLengthInVehicles="0" maxJamLengthInMeters="0.00" jamLengthInVehiclesSum="0" jamLengthInMetersSum="0.00" meanHaltingDuration="0.00" maxHaltingDuration="0.00" haltingDurationSum="0.00" meanIntervalHaltingDuration="0.00" maxIntervalHaltingDuration="0.00" intervalHaltingDurationSum="0.00" startedHalts="0.00" meanVehicleNumber="24.52" maxVehicleNumber="29" />
   <interval begin="180.00" end="240.00" id="obs_mainline_2" sampledSeconds="1482.89" nVehEntered="59" nVehLeft="59" nVehSeen="81" meanSpeed="19.42" meanTimeLoss="1.89" meanOccupancy="12.29" maxOccupancy="13.00" meanMaxJamLengthInVehicles="0.00" meanMaxJamLengthInMeters="0.00" maxJamLengthInVehicles="0" maxJamLengthInMeters="0.00" jamLengthInVehiclesSum="0" jamLengthInMetersSum="0.00" meanHaltingDuration="0.00" maxHaltingDuration="0.00" haltingDurationSum="0.00" meanIntervalHaltingDuration="0.00" maxIntervalHaltingDuration="0.00" intervalHaltingDurationSum="0.00" startedHalts="0.00" meanVehicleNumber="25.18" maxVehicleNumber="27" />
   <interval begin="240.00" end="300.00" id="obs_merging_0" sampledSeconds="38.99" nVehEntered="29" nVehLeft="29" nVehSeen="29" meanSpeed="13.57" meanTimeLoss="0.44" meanOccupancy="1.77" maxOccupancy="10.48" meanMaxJamLengthInVehicles="0.00" meanMaxJamLengthInMeters="0.00" maxJamLengthInVehicles="0" maxJamLengthInMeters="0.00" jamLengthInVehiclesSum="0" jamLengthInMetersSum="0.00" meanHaltingDuration="0.00" maxHaltingDuration="0.00" haltingDurationSum="0.00" meanIntervalHaltingDuration="0.00" maxIntervalHaltingDuration="0.00" intervalHaltingDurationSum="0.00" startedHalts="0.00" meanVehicleNumber="1.10" maxVehicleNumber="4" />
   <interval begin="240.00" end="300.00" id="obs_merging_1" sampledSeconds="214.01" nVehEntered="26" nVehLeft="30" nVehSeen="32" meanSpeed="14.73" meanTimeLoss="1.93" meanOccupancy="11.29" maxOccupancy="20.01" meanMaxJamLengthInVehicles="0.00" meanMaxJamLengthInMeters="0.00" maxJamLengthInVehicles="0" maxJamLengthInMeters="0.00" jamLengthInVehiclesSum="0" jamLengthInMetersSum="0.00" meanHaltingDuration="0.00" maxHaltingDuration="0.00" haltingDurationSum="0.00" meanIntervalHaltingDuration="0.00" maxIntervalHaltingDuration="0.00" intervalHaltingDurationSum="0.00" startedHalts="0.00" meanVehicleNumber="3.95" maxVehicleNumber="7" />
   <interval begin="240.00" end="300.00" id="obs_merging_2" sampledSeconds="214.36" nVehEntered="39" nVehLeft="40" nVehSeen="43" meanSpeed="18.38" meanTimeLoss="0.70" meanOccupancy="11.46" maxOccupancy="13.57" meanMaxJamLengthInVehicles="0.00" meanMaxJamLengthInMeters="0.00" maxJamLengthInVehicles="0" maxJamLengthInMeters="0.00" jamLengthInVehiclesSum="0" jamLengthInMetersSum="0.00" meanHaltingDuration="0.00" maxHaltingDuration="0.00" haltingDurationSum="0.00" meanIntervalHaltingDuration="0.00" maxIntervalHaltingDuration="0.00" intervalHaltingDurationSum="0.00" startedHalts="0.00" meanVehicleNumber="3.95" maxVehicleNumber="5" />
   <interval begin="240.00" end="300.00" id="obs_merging_3" sampledSeconds="224.55" nVehEntered="32" nVehLeft="32" nVehSeen="36" meanSpeed="19.63" meanTimeLoss="0.55" meanOccupancy="11.99" maxOccupancy="13.34" meanMaxJamLengthInVehicles="0.00" meanMaxJamLengthInMeters="0.00" maxJamLengthInVehicles="0" maxJamLengthInMeters="0.00" jamLengthInVehiclesSum="0" jamLengthInMetersSum="0.00" meanHaltingDuration="0.00" maxHaltingDuration="0.00" haltingDurationSum="0.00" meanIntervalHaltingDuration="0.00" maxIntervalHaltingDuration="0.00" intervalHaltingDurationSum="0.00" startedHalts="0.00" meanVehicleNumber="4.22" maxVehicleNumber="5" />
   <interval begin="240.00" end="300.00" id="obs_ramp" sampledSeconds="627.08" nVehEntered="7" nVehLeft="6" nVehSeen="17" meanSpeed="9.39" meanTimeLoss="2.75" meanOccupancy="5.21" maxOccupancy="6.00" meanMaxJamLengthInVehicles="0.00" meanMaxJamLengthInMeters="0.00" maxJamLengthInVehicles="0" maxJamLengthInMeters="0.00" jamLengthInVehiclesSum="0" jamLengthInMetersSum="0.00" meanHaltingDuration="0.00" maxHaltingDuration="0.00" haltingDurationSum="0.00" meanIntervalHaltingDuration="0.00" maxIntervalHaltingDuration="0.00" intervalHaltingDurationSum="0.00" startedHalts="0.00" meanVehicleNumber="10.58" maxVehicleNumber="12" />
   <interval begin="240.00" end="300.00" id="obs_mainline_0" sampledSeconds="1039.29" nVehEntered="108" nVehLeft="110" nVehSeen="126" meanSpeed="17.22" meanTimeLoss="1.38" meanOccupancy="8.65" maxOccupancy="10.31" meanMaxJamLengthInVehicles="0.00" meanMaxJamLengthInMeters="0.00" maxJamLengthInVehicles="0" maxJamLengthInMeters="0.00" jamLengthInVehiclesSum="0" jamLengthInMetersSum="0.00" meanHaltingDuration="0.00" maxHaltingDuration="0.00" haltingDurationSum="0.00" meanIntervalHaltingDuration="0.00" maxIntervalHaltingDuration="0.00" intervalHaltingDurationSum="0.00" startedHalts="0.00" meanVehicleNumber="17.63" maxVehicleNumber="21" />
   <interval begin="240.00" end="300.00" id="obs_mainline_1" sampledSeconds="1300.30" nVehEntered="172" nVehLeft="168" nVehSeen="191" meanSpeed="17.85" meanTimeLoss="1.13" meanOccupancy="10.71" maxOccupancy="13.50" meanMaxJamLengthInVehicles="0.00" meanMaxJamLengthInMeters="0.00" maxJamLengthInVehicles="0" maxJamLengthInMeters="0.00" jamLengthInVehiclesSum="0" jamLengthInMetersSum="0.00" meanHaltingDuration="0.00" maxHaltingDuration="0.00" haltingDurationSum="0.00" meanIntervalHaltingDuration="0.00" maxIntervalHaltingDuration="0.00" intervalHaltingDurationSum="0.00" startedHalts="0.00" meanVehicleNumber="21.98" maxVehicleNumber="27" />
   <interval begin="240.00" end="300.00" id="obs_mainline_2" sampledSeconds="1415.40" nVehEntered="82" nVehLeft="79" nVehSeen="104" meanSpeed="19.14" meanTimeLoss="1.50" meanOccupancy="11.77" maxOccupancy="13.00" meanMaxJamLengthInVehicles="0.00" meanMaxJamLengthInMeters="0.00" maxJamLengthInVehicles="0" maxJamLengthInMeters="0.00" jamLengthInVehiclesSum="0" jamLengthInMetersSum="0.00" meanHaltingDuration="0.00" maxHaltingDuration="0.00" haltingDurationSum="0.00" meanIntervalHaltingDuration="0.00" maxIntervalHaltingDuration="0.00" intervalHaltingDurationSum="0.00" startedHalts="0.00" meanVehicleNumber="24.07" maxVehicleNumber="26" />
   <interval begin="300.00" end="360.00" id="obs_merging_0" sampledSeconds="54.89" nVehEntered="27" nVehLeft="24" nVehSeen="27" meanSpeed="10.90" meanTimeLoss="0.94" meanOccupancy="2.98" maxOccupancy="10.00" meanMaxJamLengthInVehicles="0.08" meanMaxJamLengthInMeters="0.42" maxJamLengthInVehicles="1" maxJamLengthInMeters="5.00" jamLengthInVehiclesSum="5" jamLengthInMetersSum="25.00" meanHaltingDuration="0.00" maxHaltingDuration="0.00" haltingDurationSum="0.00" meanIntervalHaltingDuration="0.00" maxIntervalHaltingDuration="0.00" intervalHaltingDurationSum="0.00" startedHalts="1.00" meanVehicleNumber="1.32" maxVehicleNumber="3" />
   <interval begin="300.00" end="360.00" id="obs_merging_1" sampledSeconds="185.91" nVehEntered="37" nVehLeft="37" nVehSeen="39" meanSpeed="16.28" meanTimeLoss="1.03" meanOccupancy="9.93" maxOccupancy="16.68" meanMaxJamLengthInVehicles="0.00" meanMaxJamLengthInMeters="0.00" maxJamLengthInVehicles="0" maxJamLengthInMeters="0.00" jamLengthInVehiclesSum="0" jamLengthInMetersSum="0.00" meanHaltingDuration="1.00" maxHaltingDuration="1.00" haltingDurationSum="1.00" meanIntervalHaltingDuration="1.00" maxIntervalHaltingDuration="1.00" intervalHaltingDurationSum="1.00" startedHalts="1.00" meanVehicleNumber="3.42" maxVehicleNumber="5" />
   <interval begin="300.00" end="360.00" id="obs_merging_2" sampledSeconds="229.57" nVehEntered="49" nVehLeft="47" nVehSeen="52" meanSpeed="18.04" meanTimeLoss="0.69" meanOccupancy="12.47" maxOccupancy="16.68" meanMaxJamLengthInVehicles="0.00" meanMaxJamLengthInMeters="0.00" maxJamLengthInVehicles="0" maxJamLengthInMeters="0.00" jamLengthInVehiclesSum="0" jamLengthInMetersSum="0.00" meanHaltingDuration="0.00" maxHaltingDuration="0.00" haltingDurationSum="0.00" meanIntervalHaltingDuration="0.00" maxIntervalHaltingDuration="0.00" intervalHaltingDurationSum="0.00" startedHalts="0.00" meanVehicleNumber="4.32" maxVehicleNumber="5" />
   <interval begin="300.00" end="360.00" id="obs_merging_3" sampledSeconds="216.52" nVehEntered="34" nVehLeft="35" nVehSeen="38" meanSpeed="20.37" meanTimeLoss="0.40" meanOccupancy="11.37" maxOccupancy="13.34" meanMaxJamLengthInVehicles="0.00" meanMaxJamLengthInMeters="0.00" maxJamLengthInVehicles="0" maxJamLengthInMeters="0.00" jamLengthInVehiclesSum="0" jamLengthInMetersSum="0.00" meanHaltingDuration="0.00" maxHaltingDuration="0.00" haltingDurationSum="0.00" meanIntervalHaltingDuration="0.00" maxIntervalHaltingDuration="0.00" intervalHaltingDurationSum="0.00" startedHalts="0.00" meanVehicleNumber="4.07" maxVehicleNumber="5" />
   <interval begin="300.00" end="360.00" id="obs_ramp" sampledSeconds="680.70" nVehEntered="6" nVehLeft="4" nVehSeen="17" meanSpeed="9.48" meanTimeLoss="3.65" meanOccupancy="5.65" maxOccupancy="7.00" meanMaxJamLengthInVehicles="0.00" meanMaxJamLengthInMeters="0.00" maxJamLengthInVehicles="0" maxJamLengthInMeters="0.00" jamLengthInVehiclesSum="0" jamLengthInMetersSum="0.00" meanHaltingDuration="0.00" maxHaltingDuration="0.00" haltingDurationSum="0.00" meanIntervalHaltingDuration="0.00" maxIntervalHaltingDuration="0.00" intervalHaltingDurationSum="0.00" startedHalts="0.00" meanVehicleNumber="11.45" maxVehicleNumber="14" />