<?xml version="1.0" encoding="UTF-8"?>

<!-- generated on 06/26/19 00:23:32 by Eclipse SUMO GUI Version 1.1.0
<configuration xmlns:xsi="http://www.w3.org/2001/XMLSchema-instance" xsi:noNamespaceSchemaLocation="http://sumo.dlr.de/xsd/sumoConfiguration.xsd">

    <input>
        <net-file value="F:\Project\DQN_VSL_Controller\Project\ramp.net.xml"/>
        <route-files value="F:\Project\DQN_VSL_Controller\Project\ramp.rou.xml"/>
        <additional-files value="F:\Project\DQN_VSL_Controller\Project\ramp.add.xml"/>
    </input>

    <time>
        <begin value="0"/>
        <end value="10000"/>
    </time>

    <report>
        <verbose value="true"/>
        <no-step-log value="true"/>
    </report>

    <gui_only>
        <gui-settings-file value="F:\Project\DQN_VSL_Controller\Project\jiaoke.xml"/>
    </gui_only>

</configuration>
-->

<detector xmlns:xsi="http://www.w3.org/2001/XMLSchema-instance" xsi:noNamespaceSchemaLocation="http://sumo.dlr.de/xsd/det_e2_file.xsd">
</detector>
