<?xml version="1.0" encoding="UTF-8"?>

<!-- generated on 08/01/19 22:59:53 by Eclipse SUMO Version 1.2.0
<configuration xmlns:xsi="http://www.w3.org/2001/XMLSchema-instance" xsi:noNamespaceSchemaLocation="http://sumo.dlr.de/xsd/sumoConfiguration.xsd">

    <input>
        <net-file value="./Project/ramp.net.xml"/>
        <route-files value="./Project/ramp.rou.xml"/>
        <additional-files value="./Project/ramp.add.xml"/>
    </input>

    <output>
        <netstate-dump value="./Project/Output/Traj/traj_nn_20.xml"/>
    </output>

    <time>
        <begin value="0"/>
        <end value="9300"/>
    </time>

    <processing>
        <emergencydecel.warning-threshold value="1.2"/>
    </processing>

    <report>
        <verbose value="true"/>
        <no-step-log value="true"/>
    </report>

    <traci_server>
        <remote-port value="55898"/>
    </traci_server>

    <random_number>
        <seed value="27851656"/>
    </random_number>

    <gui_only>
        <gui-settings-file value="./Project/jiaoke.xml"/>
        <quit-on-end value="true"/>
        <start value="true"/>
    </gui_only>

</configuration>
-->

<detector xmlns:xsi="http://www.w3.org/2001/XMLSchema-instance" xsi:noNamespaceSchemaLocation="http://sumo.dlr.de/xsd/det_e1_file.xsd">
    <interval begin="0.00" end="30.00" id="mainline_eval_0_0" nVehContrib="4" flow="480.00" occupancy="4.97" speed="14.22" harmonicMeanSpeed="14.13" length="5.00" nVehEntered="5"/>
    <interval begin="0.00" end="30.00" id="mainline_eval_0_1" nVehContrib="6" flow="720.00" occupancy="7.70" speed="13.04" harmonicMeanSpeed="12.98" length="5.00" nVehEntered="6"/>
    <interval begin="0.00" end="30.00" id="mainline_eval_0_2" nVehContrib="6" flow="720.00" occupancy="7.54" speed="13.36" harmonicMeanSpeed="13.27" length="5.00" nVehEntered="6"/>
    <interval begin="0.00" end="30.00" id="mainline_eval_1_0" nVehContrib="0" flow="0.00" occupancy="0.00" speed="-1.00" harmonicMeanSpeed="-1.00" length="-1.00" nVehEntered="0"/>
    <interval begin="0.00" end="30.00" id="mainline_eval_1_1" nVehContrib="0" flow="0.00" occupancy="0.00" speed="-1.00" harmonicMeanSpeed="-1.00" length="-1.00" nVehEntered="0"/>
    <interval begin="0.00" end="30.00" id="mainline_eval_1_2" nVehContrib="0" flow="0.00" occupancy="0.00" speed="-1.00" harmonicMeanSpeed="-1.00" length="-1.00" nVehEntered="0"/>
    <interval begin="0.00" end="30.00" id="mainline_eval_2_0" nVehContrib="0" flow="0.00" occupancy="0.00" speed="-1.00" harmonicMeanSpeed="-1.00" length="-1.00" nVehEntered="0"/>
    <interval begin="0.00" end="30.00" id="mainline_eval_2_1" nVehContrib="0" flow="0.00" occupancy="0.00" speed="-1.00" harmonicMeanSpeed="-1.00" length="-1.00" nVehEntered="0"/>
    <interval begin="0.00" end="30.00" id="mainline_eval_2_2" nVehContrib="0" flow="0.00" occupancy="0.00" speed="-1.00" harmonicMeanSpeed="-1.00" length="-1.00" nVehEntered="0"/>
    <interval begin="0.00" end="30.00" id="mainline_eval_3_0" nVehContrib="0" flow="0.00" occupancy="0.00" speed="-1.00" harmonicMeanSpeed="-1.00" length="-1.00" nVehEntered="0"/>
    <interval begin="0.00" end="30.00" id="mainline_eval_3_1" nVehContrib="0" flow="0.00" occupancy="0.00" speed="-1.00" harmonicMeanSpeed="-1.00" length="-1.00" nVehEntered="0"/>
    <interval begin="0.00" end="30.00" id="mainline_eval_3_2" nVehContrib="0" flow="0.00" occupancy="0.00" speed="-1.00" harmonicMeanSpeed="-1.00" length="-1.00" nVehEntered="0"/>
    <interval begin="0.00" end="30.00" id="mainline_eval_3_3" nVehContrib="0" flow="0.00" occupancy="0.00" speed="-1.00" harmonicMeanSpeed="-1.00" length="-1.00" nVehEntered="0"/>
    <interval begin="0.00" end="30.00" id="mainline_eval_4_0" nVehContrib="0" flow="0.00" occupancy="0.00" speed="-1.00" harmonicMeanSpeed="-1.00" length="-1.00" nVehEntered="0"/>
    <interval begin="0.00" end="30.00" id="mainline_eval_4_1" nVehContrib="0" flow="0.00" occupancy="0.00" speed="-1.00" harmonicMeanSpeed="-1.00" length="-1.00" nVehEntered="0"/>
    <interval begin="0.00" end="30.00" id="mainline_eval_4_2" nVehContrib="0" flow="0.00" occupancy="0.00" speed="-1.00" harmonicMeanSpeed="-1.00" length="-1.00" nVehEntered="0"/>
    <interval begin="0.00" end="30.00" id="mainline_eval_4_3" nVehContrib="0" flow="0.00" occupancy="0.00" speed="-1.00" harmonicMeanSpeed="-1.00" length="-1.00" nVehEntered="0"/>
    <interval begin="0.00" end="30.00" id="mainline_eval_5_0" nVehContrib="0" flow="0.00" occupancy="0.00" speed="-1.00" harmonicMeanSpeed="-1.00" length="-1.00" nVehEntered="0"/>
    <interval begin="0.00" end="30.00" id="mainline_eval_5_1" nVehContrib="0" flow="0.00" occupancy="0.00" speed="-1.00" harmonicMeanSpeed="-1.00" length="-1.00" nVehEntered="0"/>
    <interval begin="0.00" end="30.00" id="mainline_eval_5_2" nVehContrib="0" flow="0.00" occupancy="0.00" speed="-1.00" harmonicMeanSpeed="-1.00" length="-1.00" nVehEntered="0"/>
    <interval begin="0.00" end="30.00" id="mainline_eval_6_0" nVehContrib="0" flow="0.00" occupancy="0.00" speed="-1.00" harmonicMeanSpeed="-1.00" length="-1.00" nVehEntered="0"/>
    <interval begin="0.00" end="30.00" id="mainline_eval_6_1" nVehContrib="0" flow="0.00" occupancy="0.00" speed="-1.00" harmonicMeanSpeed="-1.00" length="-1.00" nVehEntered="0"/>
    <interval begin="0.00" end="30.00" id="mainline_eval_6_2" nVehContrib="0" flow="0.00" occupancy="0.00" speed="-1.00" harmonicMeanSpeed="-1.00" length="-1.00" nVehEntered="0"/>
    <interval begin="30.00" end="60.00" id="mainline_eval_0_0" nVehContrib="11" flow="1320.00" occupancy="13.97" speed="13.83" harmonicMeanSpeed="13.73" length="5.00" nVehEntered="11"/>
    <interval begin="30.00" end="60.00" id="mainline_eval_0_1" nVehContrib="11" flow="1320.00" occupancy="13.63" speed="13.50" harmonicMeanSpeed="13.45" length="5.00" nVehEntered="11"/>
    <interval begin="30.00" end="60.00" id="mainline_eval_0_2" nVehContrib="10" flow="1200.00" occupancy="12.66" speed="13.33" harmonicMeanSpeed="13.16" length="5.00" nVehEntered="10"/>
    <interval begin="30.00" end="60.00" id="mainline_eval_1_0" nVehContrib="0" flow="0.00" occupancy="0.00" speed="-1.00" harmonicMeanSpeed="-1.00" length="-1.00" nVehEntered="0"/>
    <interval begin="30.00" end="60.00" id="mainline_eval_1_1" nVehContrib="0" flow="0.00" occupancy="0.00" speed="-1.00" harmonicMeanSpeed="-1.00" length="-1.00" nVehEntered="0"/>
    <interval begin="30.00" end="60.00" id="mainline_eval_1_2" nVehContrib="0" flow="0.00" occupancy="0.00" speed="-1.00" harmonicMeanSpeed="-1.00" length="-1.00" nVehEntered="0"/>
    <interval begin="30.00" end="60.00" id="mainline_eval_2_0" nVehContrib="0" flow="0.00" occupancy="0.00" speed="-1.00" harmonicMeanSpeed="-1.00" length="-1.00" nVehEntered="0"/>
    <interval begin="30.00" end="60.00" id="mainline_eval_2_1" nVehContrib="0" flow="0.00" occupancy="0.00" speed="-1.00" harmonicMeanSpeed="-1.00" length="-1.00" nVehEntered="0"/>
    <interval begin="30.00" end="60.00" id="mainline_eval_2_2" nVehContrib="0" flow="0.00" occupancy="0.00" speed="-1.00" harmonicMeanSpeed="-1.00" length="-1.00" nVehEntered="0"/>
    <interval begin="30.00" end="60.00" id="mainline_eval_3_0" nVehContrib="0" flow="0.00" occupancy="0.00" speed="-1.00" harmonicMeanSpeed="-1.00" length="-1.00" nVehEntered="0"/>
    <interval begin="30.00" end="60.00" id="mainline_eval_3_1" nVehContrib="0" flow="0.00" occupancy="0.00" speed="-1.00" harmonicMeanSpeed="-1.00" length="-1.00" nVehEntered="0"/>
    <interval begin="30.00" end="60.00" id="mainline_eval_3_2" nVehContrib="0" flow="0.00" occupancy="0.00" speed="-1.00" harmonicMeanSpeed="-1.00" length="-1.00" nVehEntered="0"/>
    <interval begin="30.00" end="60.00" id="mainline_eval_3_3" nVehContrib="0" flow="0.00" occupancy="0.00" speed="-1.00" harmonicMeanSpeed="-1.00" length="-1.00" nVehEntered="0"/>
    <interval begin="30.00" end="60.00" id="mainline_eval_4_0" nVehContrib="0" flow="0.00" occupancy="0.00" speed="-1.00" harmonicMeanSpeed="-1.00" length="-1.00" nVehEntered="0"/>
    <interval begin="30.00" end="60.00" id="mainline_eval_4_1" nVehContrib="0" flow="0.00" occupancy="0.00" speed="-1.00" harmonicMeanSpeed="-1.00" length="-1.00" nVehEntered="0"/>
    <interval begin="30.00" end="60.00" id="mainline_eval_4_2" nVehContrib="0" flow="0.00" occupancy="0.00" speed="-1.00" harmonicMeanSpeed="-1.00" length="-1.00" nVehEntered="0"/>
    <interval begin="30.00" end="60.00" id="mainline_eval_4_3" nVehContrib="0" flow="0.00" occupancy="0.00" speed="-1.00" harmonicMeanSpeed="-1.00" length="-1.00" nVehEntered="0"/>
    <interval begin="30.00" end="60.00" id="mainline_eval_5_0" nVehContrib="0" flow="0.00" occupancy="0.00" speed="-1.00" harmonicMeanSpeed="-1.00" length="-1.00" nVehEntered="0"/>
    <interval begin="30.00" end="60.00" id="mainline_eval_5_1" nVehContrib="0" flow="0.00" occupancy="0.00" speed="-1.00" harmonicMeanSpeed="-1.00" length="-1.00" nVehEntered="0"/>
    <interval begin="30.00" end="60.00" id="mainline_eval_5_2" nVehContrib="0" flow="0.00" occupancy="0.00" speed="-1.00" harmonicMeanSpeed="-1.00" length="-1.00" nVehEntered="0"/>
    <interval begin="30.00" end="60.00" id="mainline_eval_6_0" nVehContrib="0" flow="0.00" occupancy="0.00" speed="-1.00" harmonicMeanSpeed="-1.00" length="-1.00" nVehEntered="0"/>
    <interval begin="30.00" end="60.00" id="mainline_eval_6_1" nVehContrib="0" flow="0.00" occupancy="0.00" speed="-1.00" harmonicMeanSpeed="-1.00" length="-1.00" nVehEntered="0"/>
    <interval begin="30.00" end="60.00" id="mainline_eval_6_2" nVehContrib="0" flow="0.00" occupancy="0.00" speed="-1.00" harmonicMeanSpeed="-1.00" length="-1.00" nVehEntered="0"/>
    <interval begin="60.00" end="90.00" id="mainline_eval_0_0" nVehContrib="12" flow="1440.00" occupancy="13.87" speed="13.68" harmonicMeanSpeed="13.57" length="5.00" nVehEntered="11"/>
    <interval begin="60.00" end="90.00" id="mainline_eval_0_1" nVehContrib="10" flow="1200.00" occupancy="13.33" speed="12.58" harmonicMeanSpeed="12.50" length="5.00" nVehEntered="10"/>
    <interval begin="60.00" end="90.00" id="mainline_eval_0_2" nVehContrib="11" flow="1320.00" occupancy="14.59" speed="12.63" harmonicMeanSpeed="12.57" length="5.00" nVehEntered="11"/>
    <interval begin="60.00" end="90.00" id="mainline_eval_1_0" nVehContrib="2" flow="240.00" occupancy="1.91" speed="17.59" harmonicMeanSpeed="17.47" length="5.00" nVehEntered="2"/>
    <interval begin="60.00" end="90.00" id="mainline_eval_1_1" nVehContrib="5" flow="600.00" occupancy="4.71" speed="17.83" harmonicMeanSpeed="17.70" length="5.00" nVehEntered="5"/>
    <interval begin="60.00" end="90.00" id="mainline_eval_1_2" nVehContrib="6" flow="720.00" occupancy="5.15" speed="19.46" harmonicMeanSpeed="19.43" length="5.00" nVehEntered="6"/>
    <interval begin="60.00" end="90.00" id="mainline_eval_2_0" nVehContrib="0" flow="0.00" occupancy="0.00" speed="-1.00" harmonicMeanSpeed="-1.00" length="-1.00" nVehEntered="0"/>
    <interval begin="60.00" end="90.00" id="mainline_eval_2_1" nVehContrib="0" flow="0.00" occupancy="0.00" speed="-1.00" harmonicMeanSpeed="-1.00" length="-1.00" nVehEntered="0"/>
    <interval begin="60.00" end="90.00" id="mainline_eval_2_2" nVehContrib="0" flow="0.00" occupancy="0.00" speed="-1.00" harmonicMeanSpeed="-1.00" length="-1.00" nVehEntered="0"/>
    <interval begin="60.00" end="90.00" id="mainline_eval_3_0" nVehContrib="0" flow="0.00" occupancy="0.00" speed="-1.00" harmonicMeanSpeed="-1.00" length="-1.00" nVehEntered="0"/>
    <interval begin="60.00" end="90.00" id="mainline_eval_3_1" nVehContrib="0" flow="0.00" occupancy="0.00" speed="-1.00" harmonicMeanSpeed="-1.00" length="-1.00" nVehEntered="0"/>
    <interval begin="60.00" end="90.00" id="mainline_eval_3_2" nVehContrib="0" flow="0.00" occupancy="0.00" speed="-1.00" harmonicMeanSpeed="-1.00" length="-1.00" nVehEntered="0"/>
    <interval begin="60.00" end="90.00" id="mainline_eval_3_3" nVehContrib="0" flow="0.00" occupancy="0.00" speed="-1.00" harmonicMeanSpeed="-1.00" length="-1.00" nVehEntered="0"/>
    <interval begin="60.00" end="90.00" id="mainline_eval_4_0" nVehContrib="0" flow="0.00" occupancy="0.00" speed="-1.00" harmonicMeanSpeed="-1.00" length="-1.00" nVehEntered="0"/>
    <interval begin="60.00" end="90.00" id="mainline_eval_4_1" nVehContrib="0" flow="0.00" occupancy="0.00" speed="-1.00" harmonicMeanSpeed="-1.00" length="-1.00" nVehEntered="0"/>
    <interval begin="60.00" end="90.00" id="mainline_eval_4_2" nVehContrib="0" flow="0.00" occupancy="0.00" speed="-1.00" harmonicMeanSpeed="-1.00" length="-1.00" nVehEntered="0"/>
    <interval begin="60.00" end="90.00" id="mainline_eval_4_3" nVehContrib="0" flow="0.00" occupancy="0.00" speed="-1.00" harmonicMeanSpeed="-1.00" length="-1.00" nVehEntered="0"/>
    <interval begin="60.00" end="90.00" id="mainline_eval_5_0" nVehContrib="0" flow="0.00" occupancy="0.00" speed="-1.00" harmonicMeanSpeed="-1.00" length="-1.00" nVehEntered="0"/>
    <interval begin="60.00" end="90.00" id="mainline_eval_5_1" nVehContrib="0" flow="0.00" occupancy="0.00" speed="-1.00" harmonicMeanSpeed="-1.00" length="-1.00" nVehEntered="0"/>
    <interval begin="60.00" end="90.00" id="mainline_eval_5_2" nVehContrib="0" flow="0.00" occupancy="0.00" speed="-1.00" harmonicMeanSpeed="-1.00" length="-1.00" nVehEntered="0"/>
    <interval begin="60.00" end="90.00" id="mainline_eval_6_0" nVehContrib="0" flow="0.00" occupancy="0.00" speed="-1.00" harmonicMeanSpeed="-1.00" length="-1.00" nVehEntered="0"/>
    <interval begin="60.00" end="90.00" id="mainline_eval_6_1" nVehContrib="0" flow="0.00" occupancy="0.00" speed="-1.00" harmonicMeanSpeed="-1.00" length="-1.00" nVehEntered="0"/>
    <interval begin="60.00" end="90.00" id="mainline_eval_6_2" nVehContrib="0" flow="0.00" occupancy="0.00" speed="-1.00" harmonicMeanSpeed="-1.00" length="-1.00" nVehEntered="0"/>
    <interval begin="90.00" end="120.00" id="mainline_eval_0_0" nVehContrib="11" flow="1320.00" occupancy="15.29" speed="12.61" harmonicMeanSpeed="12.54" length="5.00" nVehEntered="12"/>
    <interval begin="90.00" end="120.00" id="mainline_eval_0_1" nVehContrib="12" flow="1440.00" occupancy="16.01" speed="12.70" harmonicMeanSpeed="12.49" length="5.00" nVehEntered="12"/>
    <interval begin="90.00" end="120.00" id="mainline_eval_0_2" nVehContrib="13" flow="1560.00" occupancy="15.77" speed="13.84" harmonicMeanSpeed="13.74" length="5.00" nVehEntered="13"/>
    <interval begin="90.00" end="120.00" id="mainline_eval_1_0" nVehContrib="7" flow="840.00" occupancy="6.38" speed="18.42" harmonicMeanSpeed="18.29" length="5.00" nVehEntered="7"/>
    <interval begin="90.00" end="120.00" id="mainline_eval_1_1" nVehContrib="10" flow="1200.00" occupancy="8.78" speed="19.09" harmonicMeanSpeed="18.99" length="5.00" nVehEntered="10"/>
    <interval begin="90.00" end="120.00" id="mainline_eval_1_2" nVehContrib="11" flow="1320.00" occupancy="9.21" speed="20.00" harmonicMeanSpeed="19.91" length="5.00" nVehEntered="11"/>
    <interval begin="90.00" end="120.00" id="mainline_eval_2_0" nVehContrib="0" flow="0.00" occupancy="0.00" speed="-1.00" harmonicMeanSpeed="-1.00" length="-1.00" nVehEntered="0"/>
    <interval begin="90.00" end="120.00" id="mainline_eval_2_1" nVehContrib="0" flow="0.00" occupancy="0.00" speed="-1.00" harmonicMeanSpeed="-1.00" length="-1.00" nVehEntered="0"/>
    <interval begin="90.00" end="120.00" id="mainline_eval_2_2" nVehContrib="2" flow="240.00" occupancy="1.61" speed="20.77" harmonicMeanSpeed="20.76" length="5.00" nVehEntered="2"/>
    <interval begin="90.00" end="120.00" id="mainline_eval_3_0" nVehContrib="0" flow="0.00" occupancy="0.00" speed="-1.00" harmonicMeanSpeed="-1.00" length="-1.00" nVehEntered="0"/>
    <interval begin="90.00" end="120.00" id="mainline_eval_3_1" nVehContrib="0" flow="0.00" occupancy="0.00" speed="-1.00" harmonicMeanSpeed="-1.00" length="-1.00" nVehEntered="0"/>
    <interval begin="90.00" end="120.00" id="mainline_eval_3_2" nVehContrib="0" flow="0.00" occupancy="0.00" speed="-1.00" harmonicMeanSpeed="-1.00" length="-1.00" nVehEntered="0"/>
    <interval begin="90.00" end="120.00" id="mainline_eval_3_3" nVehContrib="1" flow="120.00" occupancy="0.81" speed="20.54" harmonicMeanSpeed="20.54" length="5.00" nVehEntered="1"/>
    <interval begin="90.00" end="120.00" id="mainline_eval_4_0" nVehContrib="0" flow="0.00" occupancy="0.00" speed="-1.00" harmonicMeanSpeed="-1.00" length="-1.00" nVehEntered="0"/>
    <interval begin="90.00" end="120.00" id="mainline_eval_4_1" nVehContrib="0" flow="0.00" occupancy="0.00" speed="-1.00" harmonicMeanSpeed="-1.00" length="-1.00" nVehEntered="0"/>
    <interval begin="90.00" end="120.00" id="mainline_eval_4_2" nVehContrib="0" flow="0.00" occupancy="0.00" speed="-1.00" harmonicMeanSpeed="-1.00" length="-1.00" nVehEntered="0"/>
    <interval begin="90.00" end="120.00" id="mainline_eval_4_3" nVehContrib="0" flow="0.00" occupancy="0.00" speed="-1.00" harmonicMeanSpeed="-1.00" length="-1.00" nVehEntered="0"/>
    <interval begin="90.00" end="120.00" id="mainline_eval_5_0" nVehContrib="0" flow="0.00" occupancy="0.00" speed="-1.00" harmonicMeanSpeed="-1.00" length="-1.00" nVehEntered="0"/>
    <interval begin="90.00" end="120.00" id="mainline_eval_5_1" nVehContrib="0" flow="0.00" occupancy="0.00" speed="-1.00" harmonicMeanSpeed="-1.00" length="-1.00" nVehEntered="0"/>
    <interval begin="90.00" end="120.00" id="mainline_eval_5_2" nVehContrib="0" flow="0.00" occupancy="0.00" speed="-1.00" harmonicMeanSpeed="-1.00" length="-1.00" nVehEntered="0"/>
    <interval begin="90.00" end="120.00" id="mainline_eval_6_0" nVehContrib="0" flow="0.00" occupancy="0.00" speed="-1.00" harmonicMeanSpeed="-1.00" length="-1.00" nVehEntered="0"/>
    <interval begin="90.00" end="120.00" id="mainline_eval_6_1" nVehContrib="0" flow="0.00" occupancy="0.00" speed="-1.00" harmonicMeanSpeed="-1.00" length="-1.00" nVehEntered="0"/>
    <interval begin="90.00" end="120.00" id="mainline_eval_6_2" nVehContrib="0" flow="0.00" occupancy="0.00" speed="-1.00" harmonicMeanSpeed="-1.00" length="-1.00" nVehEntered="0"/>
    <interval begin="120.00" end="150.00" id="mainline_eval_0_0" nVehContrib="12" flow="1440.00" occupancy="16.08" speed="12.79" harmonicMeanSpeed="12.69" length="5.00" nVehEntered="12"/>
    <interval begin="120.00" end="150.00" id="mainline_eval_0_1" nVehContrib="13" flow="1560.00" occupancy="15.92" speed="13.67" harmonicMeanSpeed="13.61" length="5.00" nVehEntered="13"/>
    <interval begin="120.00" end="150.00" id="mainline_eval_0_2" nVehContrib="12" flow="1440.00" occupancy="14.37" speed="13.98" harmonicMeanSpeed="13.92" length="5.00" nVehEntered="12"/>
    <interval begin="120.00" end="150.00" id="mainline_eval_1_0" nVehContrib="3" flow="360.00" occupancy="2.74" speed="18.27" harmonicMeanSpeed="18.24" length="5.00" nVehEntered="3"/>
    <interval begin="120.00" end="150.00" id="mainline_eval_1_1" nVehContrib="13" flow="1560.00" occupancy="11.72" speed="18.51" harmonicMeanSpeed="18.48" length="5.00" nVehEntered="13"/>
    <interval begin="120.00" end="150.00" id="mainline_eval_1_2" nVehContrib="14" flow="1680.00" occupancy="12.69" speed="18.40" harmonicMeanSpeed="18.39" length="5.00" nVehEntered="14"/>
    <interval begin="120.00" end="150.00" id="mainline_eval_2_0" nVehContrib="5" flow="600.00" occupancy="4.41" speed="18.94" harmonicMeanSpeed="18.89" length="5.00" nVehEntered="5"/>
    <interval begin="120.00" end="150.00" id="mainline_eval_2_1" nVehContrib="6" flow="720.00" occupancy="5.04" speed="19.85" harmonicMeanSpeed="19.84" length="5.00" nVehEntered="6"/>
    <interval begin="120.00" end="150.00" id="mainline_eval_2_2" nVehContrib="9" flow="1080.00" occupancy="7.00" speed="21.45" harmonicMeanSpeed="21.44" length="5.00" nVehEntered="10"/>
    <interval begin="120.00" end="150.00" id="mainline_eval_3_0" nVehContrib="1" flow="120.00" occupancy="1.21" speed="13.83" harmonicMeanSpeed="13.83" length="5.00" nVehEntered="1"/>
    <interval begin="120.00" end="150.00" id="mainline_eval_3_1" nVehContrib="5" flow="600.00" occupancy="4.37" speed="19.21" harmonicMeanSpeed="19.09" length="5.00" nVehEntered="5"/>
    <interval begin="120.00" end="150.00" id="mainline_eval_3_2" nVehContrib="6" flow="720.00" occupancy="4.88" speed="20.55" harmonicMeanSpeed="20.51" length="5.00" nVehEntered="6"/>
    <interval begin="120.00" end="150.00" id="mainline_eval_3_3" nVehContrib="8" flow="960.00" occupancy="6.29" speed="21.21" harmonicMeanSpeed="21.19" length="5.00" nVehEntered="8"/>
    <interval begin="120.00" end="150.00" id="mainline_eval_4_0" nVehContrib="0" flow="0.00" occupancy="0.00" speed="-1.00" harmonicMeanSpeed="-1.00" length="-1.00" nVehEntered="1"/>
    <interval begin="120.00" end="150.00" id="mainline_eval_4_1" nVehContrib="5" flow="600.00" occupancy="7.39" speed="16.19" harmonicMeanSpeed="11.28" length="5.00" nVehEntered="5"/>
    <interval begin="120.00" end="150.00" id="mainline_eval_4_2" nVehContrib="5" flow="600.00" occupancy="4.16" speed="20.07" harmonicMeanSpeed="20.03" length="5.00" nVehEntered="5"/>
    <interval begin="120.00" end="150.00" id="mainline_eval_4_3" nVehContrib="8" flow="960.00" occupancy="6.30" speed="21.17" harmonicMeanSpeed="21.16" length="5.00" nVehEntered="8"/>
    <interval begin="120.00" end="150.00" id="mainline_eval_5_0" nVehContrib="2" flow="240.00" occupancy="1.76" speed="18.90" harmonicMeanSpeed="18.90" length="5.00" nVehEntered="2"/>
    <interval begin="120.00" end="150.00" id="mainline_eval_5_1" nVehContrib="2" flow="240.00" occupancy="1.68" speed="19.90" harmonicMeanSpeed="19.87" length="5.00" nVehEntered="2"/>
    <interval begin="120.00" end="150.00" id="mainline_eval_5_2" nVehContrib="4" flow="480.00" occupancy="3.19" speed="20.91" harmonicMeanSpeed="20.90" length="5.00" nVehEntered="4"/>
    <interval begin="120.00" end="150.00" id="mainline_eval_6_0" nVehContrib="1" flow="120.00" occupancy="0.88" speed="18.96" harmonicMeanSpeed="18.96" length="5.00" nVehEntered="1"/>
    <interval begin="120.00" end="150.00" id="mainline_eval_6_1" nVehContrib="0" flow="0.00" occupancy="0.00" speed="-1.00" harmonicMeanSpeed="-1.00" length="-1.00" nVehEntered="0"/>
    <interval begin="120.00" end="150.00" id="mainline_eval_6_2" nVehContrib="2" flow="240.00" occupancy="1.58" speed="21.17" harmonicMeanSpeed="21.16" length="5.00" nVehEntered="2"/>
    <interval begin="150.00" end="180.00" id="mainline_eval_0_0" nVehContrib="13" flow="1560.00" occupancy="19.94" speed="11.81" harmonicMeanSpeed="10.68" length="5.00" nVehEntered="13"/>
    <interval begin="150.00" end="180.00" id="mainline_eval_0_1" nVehContrib="11" flow="1320.00" occupancy="16.81" speed="11.81" harmonicMeanSpeed="10.91" length="5.00" nVehEntered="13"/>
    <interval begin="150.00" end="180.00" id="mainline_eval_0_2" nVehContrib="12" flow="1440.00" occupancy="18.15" speed="12.09" harmonicMeanSpeed="11.02" length="5.00" nVehEntered="13"/>
    <interval begin="150.00" end="180.00" id="mainline_eval_1_0" nVehContrib="14" flow="1680.00" occupancy="15.68" speed="17.45" harmonicMeanSpeed="14.88" length="5.00" nVehEntered="14"/>
    <interval begin="150.00" end="180.00" id="mainline_eval_1_1" nVehContrib="11" flow="1320.00" occupancy="9.89" speed="18.56" harmonicMeanSpeed="18.53" length="5.00" nVehEntered="12"/>
    <interval begin="150.00" end="180.00" id="mainline_eval_1_2" nVehContrib="15" flow="1800.00" occupancy="12.83" speed="19.50" harmonicMeanSpeed="19.49" length="5.00" nVehEntered="15"/>
    <interval begin="150.00" end="180.00" id="mainline_eval_2_0" nVehContrib="6" flow="720.00" occupancy="5.01" speed="20.00" harmonicMeanSpeed="19.97" length="5.00" nVehEntered="6"/>
    <interval begin="150.00" end="180.00" id="mainline_eval_2_1" nVehContrib="10" flow="1200.00" occupancy="8.58" speed="19.47" harmonicMeanSpeed="19.44" length="5.00" nVehEntered="10"/>
    <interval begin="150.00" end="180.00" id="mainline_eval_2_2" nVehContrib="11" flow="1320.00" occupancy="9.01" speed="20.38" harmonicMeanSpeed="20.34" length="5.00" nVehEntered="11"/>
    <interval begin="150.00" end="180.00" id="mainline_eval_3_0" nVehContrib="1" flow="120.00" occupancy="1.24" speed="13.41" harmonicMeanSpeed="13.41" length="5.00" nVehEntered="1"/>
    <interval begin="150.00" end="180.00" id="mainline_eval_3_1" nVehContrib="6" flow="720.00" occupancy="5.14" speed="19.49" harmonicMeanSpeed="19.46" length="5.00" nVehEntered="6"/>
    <interval begin="150.00" end="180.00" id="mainline_eval_3_2" nVehContrib="9" flow="1080.00" occupancy="7.70" speed="19.51" harmonicMeanSpeed="19.48" length="5.00" nVehEntered="9"/>
    <interval begin="150.00" end="180.00" id="mainline_eval_3_3" nVehContrib="12" flow="1440.00" occupancy="9.67" speed="20.71" harmonicMeanSpeed="20.68" length="5.00" nVehEntered="12"/>
    <interval begin="150.00" end="180.00" id="mainline_eval_4_0" nVehContrib="0" flow="0.00" occupancy="0.00" speed="-1.00" harmonicMeanSpeed="-1.00" length="-1.00" nVehEntered="0"/>
    <interval begin="150.00" end="180.00" id="mainline_eval_4_1" nVehContrib="8" flow="960.00" occupancy="7.20" speed="18.61" harmonicMeanSpeed="18.53" length="5.00" nVehEntered="8"/>
    <interval begin="150.00" end="180.00" id="mainline_eval_4_2" nVehContrib="9" flow="1080.00" occupancy="7.86" speed="19.13" harmonicMeanSpeed="19.08" length="5.00" nVehEntered="9"/>
    <interval begin="150.00" end="180.00" id="mainline_eval_4_3" nVehContrib="11" flow="1320.00" occupancy="9.21" speed="21.12" harmonicMeanSpeed="21.10" length="5.00" nVehEntered="12"/>
    <interval begin="150.00" end="180.00" id="mainline_eval_5_0" nVehContrib="10" flow="1200.00" occupancy="8.72" speed="19.19" harmonicMeanSpeed="19.12" length="5.00" nVehEntered="10"/>
    <interval begin="150.00" end="180.00" id="mainline_eval_5_1" nVehContrib="11" flow="1320.00" occupancy="9.06" speed="20.24" harmonicMeanSpeed="20.23" length="5.00" nVehEntered="11"/>
    <interval begin="150.00" end="180.00" id="mainline_eval_5_2" nVehContrib="13" flow="1560.00" occupancy="10.04" speed="21.59" harmonicMeanSpeed="21.59" length="5.00" nVehEntered="13"/>
    <interval begin="150.00" end="180.00" id="mainline_eval_6_0" nVehContrib="9" flow="1080.00" occupancy="7.54" speed="19.93" harmonicMeanSpeed="19.89" length="5.00" nVehEntered="9"/>
    <interval begin="150.00" end="180.00" id="mainline_eval_6_1" nVehContrib="11" flow="1320.00" occupancy="9.00" speed="20.40" harmonicMeanSpeed="20.37" length="5.00" nVehEntered="11"/>
    <interval begin="150.00" end="180.00" id="mainline_eval_6_2" nVehContrib="13" flow="1560.00" occupancy="10.26" speed="21.77" harmonicMeanSpeed="21.76" length="5.00" nVehEntered="14"/>
    <interval begin="180.00" end="210.00" id="mainline_eval_0_0" nVehContrib="11" flow="1320.00" occupancy="13.38" speed="13.11" harmonicMeanSpeed="13.08" length="5.00" nVehEntered="10"/>
    <interval begin="180.00" end="210.00" id="mainline_eval_0_1" nVehContrib="12" flow="1440.00" occupancy="14.49" speed="13.89" harmonicMeanSpeed="13.81" length="5.00" nVehEntered="12"/>
    <interval begin="180.00" end="210.00" id="mainline_eval_0_2" nVehContrib="11" flow="1320.00" occupancy="13.60" speed="13.57" harmonicMeanSpeed="13.48" length="5.00" nVehEntered="11"/>
    <interval begin="180.00" end="210.00" id="mainline_eval_1_0" nVehContrib="10" flow="1200.00" occupancy="10.23" speed="16.36" harmonicMeanSpeed="16.29" length="5.00" nVehEntered="11"/>
    <interval begin="180.00" end="210.00" id="mainline_eval_1_1" nVehContrib="14" flow="1680.00" occupancy="16.10" speed="16.55" harmonicMeanSpeed="14.49" length="5.00" nVehEntered="14"/>
    <interval begin="180.00" end="210.00" id="mainline_eval_1_2" nVehContrib="15" flow="1800.00" occupancy="12.48" speed="20.04" harmonicMeanSpeed="20.03" length="5.00" nVehEntered="15"/>
    <interval begin="180.00" end="210.00" id="mainline_eval_2_0" nVehContrib="4" flow="480.00" occupancy="3.82" speed="17.76" harmonicMeanSpeed="17.45" length="5.00" nVehEntered="4"/>
    <interval begin="180.00" end="210.00" id="mainline_eval_2_1" nVehContrib="10" flow="1200.00" occupancy="9.28" speed="18.04" harmonicMeanSpeed="17.96" length="5.00" nVehEntered="11"/>
    <interval begin="180.00" end="210.00" id="mainline_eval_2_2" nVehContrib="12" flow="1440.00" occupancy="10.40" speed="19.25" harmonicMeanSpeed="19.22" length="5.00" nVehEntered="12"/>
    <interval begin="180.00" end="210.00" id="mainline_eval_3_0" nVehContrib="0" flow="0.00" occupancy="0.00" speed="-1.00" harmonicMeanSpeed="-1.00" length="-1.00" nVehEntered="0"/>
    <interval begin="180.00" end="210.00" id="mainline_eval_3_1" nVehContrib="7" flow="840.00" occupancy="7.13" speed="16.51" harmonicMeanSpeed="16.36" length="5.00" nVehEntered="7"/>
    <interval begin="180.00" end="210.00" id="mainline_eval_3_2" nVehContrib="13" flow="1560.00" occupancy="15.18" speed="17.02" harmonicMeanSpeed="14.27" length="5.00" nVehEntered="13"/>
    <interval begin="180.00" end="210.00" id="mainline_eval_3_3" nVehContrib="10" flow="1200.00" occupancy="8.80" speed="19.55" harmonicMeanSpeed="19.54" length="5.00" nVehEntered="12"/>
    <interval begin="180.00" end="210.00" id="mainline_eval_4_0" nVehContrib="0" flow="0.00" occupancy="0.00" speed="-1.00" harmonicMeanSpeed="-1.00" length="-1.00" nVehEntered="0"/>
    <interval begin="180.00" end="210.00" id="mainline_eval_4_1" nVehContrib="8" flow="960.00" occupancy="7.89" speed="18.38" harmonicMeanSpeed="18.34" length="5.00" nVehEntered="10"/>
    <interval begin="180.00" end="210.00" id="mainline_eval_4_2" nVehContrib="10" flow="1200.00" occupancy="11.87" speed="17.45" harmonicMeanSpeed="14.04" length="5.00" nVehEntered="10"/>
    <interval begin="180.00" end="210.00" id="mainline_eval_4_3" nVehContrib="11" flow="1320.00" occupancy="8.87" speed="19.55" harmonicMeanSpeed="19.54" length="5.00" nVehEntered="10"/>