<?xml version="1.0" encoding="UTF-8"?>

<!-- generated on 06/06/20 15:54:07 by Eclipse SUMO Version 1.3.1
<configuration xmlns:xsi="http://www.w3.org/2001/XMLSchema-instance" xsi:noNamespaceSchemaLocation="http://sumo.dlr.de/xsd/sumoConfiguration.xsd">

    <input>
        <net-file value="./Project/ramp.net.xml"/>
        <route-files value="./Project/ramp.rou.xml"/>
        <additional-files value="./Project/ramp.add.xml"/>
    </input>

    <time>
        <begin value="0"/>
        <end value="9300"/>
    </time>

    <processing>
        <emergencydecel.warning-threshold value="1.2"/>
    </processing>

    <report>
        <verbose value="true"/>
        <no-step-log value="true"/>
    </report>

    <traci_server>
        <remote-port value="51795"/>
    </traci_server>

    <random_number>
        <seed value="76073565"/>
    </random_number>

    <gui_only>
        <gui-settings-file value="./Project/jiaoke.xml"/>
        <quit-on-end value="true"/>
        <start value="true"/>
    </gui_only>

</configuration>
-->

<detector xmlns:xsi="http://www.w3.org/2001/XMLSchema-instance" xsi:noNamespaceSchemaLocation="http://sumo.dlr.de/xsd/det_e1_file.xsd">
    <interval begin="0.00" end="30.00" id="mainline_eval_0_0" nVehContrib="6" flow="720.00" occupancy="6.66" speed="15.10" harmonicMeanSpeed="15.01" length="5.00" nVehEntered="6"/>
    <interval begin="0.00" end="30.00" id="mainline_eval_0_1" nVehContrib="6" flow="720.00" occupancy="7.17" speed="14.01" harmonicMeanSpeed="13.94" length="5.00" nVehEntered="6"/>
    <interval begin="0.00" end="30.00" id="mainline_eval_0_2" nVehContrib="4" flow="480.00" occupancy="4.81" speed="14.03" harmonicMeanSpeed="13.87" length="5.00" nVehEntered="4"/>
    <interval begin="0.00" end="30.00" id="mainline_eval_1_0" nVehContrib="0" flow="0.00" occupancy="0.00" speed="-1.00" harmonicMeanSpeed="-1.00" length="-1.00" nVehEntered="0"/>
    <interval begin="0.00" end="30.00" id="mainline_eval_1_1" nVehContrib="0" flow="0.00" occupancy="0.00" speed="-1.00" harmonicMeanSpeed="-1.00" length="-1.00" nVehEntered="0"/>
    <interval begin="0.00" end="30.00" id="mainline_eval_1_2" nVehContrib="0" flow="0.00" occupancy="0.00" speed="-1.00" harmonicMeanSpeed="-1.00" length="-1.00" nVehEntered="0"/>
    <interval begin="0.00" end="30.00" id="mainline_eval_2_0" nVehContrib="0" flow="0.00" occupancy="0.00" speed="-1.00" harmonicMeanSpeed="-1.00" length="-1.00" nVehEntered="0"/>
    <interval begin="0.00" end="30.00" id="mainline_eval_2_1" nVehContrib="0" flow="0.00" occupancy="0.00" speed="-1.00" harmonicMeanSpeed="-1.00" length="-1.00" nVehEntered="0"/>
    <interval begin="0.00" end="30.00" id="mainline_eval_2_2" nVehContrib="0" flow="0.00" occupancy="0.00" speed="-1.00" harmonicMeanSpeed="-1.00" length="-1.00" nVehEntered="0"/>
    <interval begin="0.00" end="30.00" id="mainline_eval_3_0" nVehContrib="0" flow="0.00" occupancy="0.00" speed="-1.00" harmonicMeanSpeed="-1.00" length="-1.00" nVehEntered="0"/>
    <interval begin="0.00" end="30.00" id="mainline_eval_3_1" nVehContrib="0" flow="0.00" occupancy="0.00" speed="-1.00" harmonicMeanSpeed="-1.00" length="-1.00" nVehEntered="0"/>
    <interval begin="0.00" end="30.00" id="mainline_eval_3_2" nVehContrib="0" flow="0.00" occupancy="0.00" speed="-1.00" harmonicMeanSpeed="-1.00" length="-1.00" nVehEntered="0"/>
    <interval begin="0.00" end="30.00" id="mainline_eval_3_3" nVehContrib="0" flow="0.00" occupancy="0.00" speed="-1.00" harmonicMeanSpeed="-1.00" length="-1.00" nVehEntered="0"/>
    <interval begin="0.00" end="30.00" id="mainline_eval_4_0" nVehContrib="0" flow="0.00" occupancy="0.00" speed="-1.00" harmonicMeanSpeed="-1.00" length="-1.00" nVehEntered="0"/>
    <interval begin="0.00" end="30.00" id="mainline_eval_4_1" nVehContrib="0" flow="0.00" occupancy="0.00" speed="-1.00" harmonicMeanSpeed="-1.00" length="-1.00" nVehEntered="0"/>
    <interval begin="0.00" end="30.00" id="mainline_eval_4_2" nVehContrib="0" flow="0.00" occupancy="0.00" speed="-1.00" harmonicMeanSpeed="-1.00" length="-1.00" nVehEntered="0"/>
    <interval begin="0.00" end="30.00" id="mainline_eval_4_3" nVehContrib="0" flow="0.00" occupancy="0.00" speed="-1.00" harmonicMeanSpeed="-1.00" length="-1.00" nVehEntered="0"/>
    <interval begin="0.00" end="30.00" id="mainline_eval_5_0" nVehContrib="0" flow="0.00" occupancy="0.00" speed="-1.00" harmonicMeanSpeed="-1.00" length="-1.00" nVehEntered="0"/>
    <interval begin="0.00" end="30.00" id="mainline_eval_5_1" nVehContrib="0" flow="0.00" occupancy="0.00" speed="-1.00" harmonicMeanSpeed="-1.00" length="-1.00" nVehEntered="0"/>
    <interval begin="0.00" end="30.00" id="mainline_eval_5_2" nVehContrib="0" flow="0.00" occupancy="0.00" speed="-1.00" harmonicMeanSpeed="-1.00" length="-1.00" nVehEntered="0"/>
    <interval begin="0.00" end="30.00" id="mainline_eval_6_0" nVehContrib="0" flow="0.00" occupancy="0.00" speed="-1.00" harmonicMeanSpeed="-1.00" length="-1.00" nVehEntered="0"/>
    <interval begin="0.00" end="30.00" id="mainline_eval_6_1" nVehContrib="0" flow="0.00" occupancy="0.00" speed="-1.00" harmonicMeanSpeed="-1.00" length="-1.00" nVehEntered="0"/>
    <interval begin="0.00" end="30.00" id="mainline_eval_6_2" nVehContrib="0" flow="0.00" occupancy="0.00" speed="-1.00" harmonicMeanSpeed="-1.00" length="-1.00" nVehEntered="0"/>
    <interval begin="30.00" end="60.00" id="mainline_eval_0_0" nVehContrib="11" flow="1320.00" occupancy="14.15" speed="13.05" harmonicMeanSpeed="12.96" length="5.00" nVehEntered="11"/>
    <interval begin="30.00" end="60.00" id="mainline_eval_0_1" nVehContrib="10" flow="1200.00" occupancy="13.36" speed="12.70" harmonicMeanSpeed="12.48" length="5.00" nVehEntered="10"/>
    <interval begin="30.00" end="60.00" id="mainline_eval_0_2" nVehContrib="11" flow="1320.00" occupancy="13.97" speed="13.26" harmonicMeanSpeed="13.13" length="5.00" nVehEntered="11"/>
    <interval begin="30.00" end="60.00" id="mainline_eval_1_0" nVehContrib="0" flow="0.00" occupancy="0.00" speed="-1.00" harmonicMeanSpeed="-1.00" length="-1.00" nVehEntered="0"/>
    <interval begin="30.00" end="60.00" id="mainline_eval_1_1" nVehContrib="0" flow="0.00" occupancy="0.00" speed="-1.00" harmonicMeanSpeed="-1.00" length="-1.00" nVehEntered="0"/>
    <interval begin="30.00" end="60.00" id="mainline_eval_1_2" nVehContrib="0" flow="0.00" occupancy="0.00" speed="-1.00" harmonicMeanSpeed="-1.00" length="-1.00" nVehEntered="0"/>
    <interval begin="30.00" end="60.00" id="mainline_eval_2_0" nVehContrib="0" flow="0.00" occupancy="0.00" speed="-1.00" harmonicMeanSpeed="-1.00" length="-1.00" nVehEntered="0"/>
    <interval begin="30.00" end="60.00" id="mainline_eval_2_1" nVehContrib="0" flow="0.00" occupancy="0.00" speed="-1.00" harmonicMeanSpeed="-1.00" length="-1.00" nVehEntered="0"/>
    <interval begin="30.00" end="60.00" id="mainline_eval_2_2" nVehContrib="0" flow="0.00" occupancy="0.00" speed="-1.00" harmonicMeanSpeed="-1.00" length="-1.00" nVehEntered="0"/>
    <interval begin="30.00" end="60.00" id="mainline_eval_3_0" nVehContrib="0" flow="0.00" occupancy="0.00" speed="-1.00" harmonicMeanSpeed="-1.00" length="-1.00" nVehEntered="0"/>
    <interval begin="30.00" end="60.00" id="mainline_eval_3_1" nVehContrib="0" flow="0.00" occupancy="0.00" speed="-1.00" harmonicMeanSpeed="-1.00" length="-1.00" nVehEntered="0"/>
    <interval begin="30.00" end="60.00" id="mainline_eval_3_2" nVehContrib="0" flow="0.00" occupancy="0.00" speed="-1.00" harmonicMeanSpeed="-1.00" length="-1.00" nVehEntered="0"/>
    <interval begin="30.00" end="60.00" id="mainline_eval_3_3" nVehContrib="0" flow="0.00" occupancy="0.00" speed="-1.00" harmonicMeanSpeed="-1.00" length="-1.00" nVehEntered="0"/>
    <interval begin="30.00" end="60.00" id="mainline_eval_4_0" nVehContrib="0" flow="0.00" occupancy="0.00" speed="-1.00" harmonicMeanSpeed="-1.00" length="-1.00" nVehEntered="0"/>
    <interval begin="30.00" end="60.00" id="mainline_eval_4_1" nVehContrib="0" flow="0.00" occupancy="0.00" speed="-1.00" harmonicMeanSpeed="-1.00" length="-1.00" nVehEntered="0"/>
    <interval begin="30.00" end="60.00" id="mainline_eval_4_2" nVehContrib="0" flow="0.00" occupancy="0.00" speed="-1.00" harmonicMeanSpeed="-1.00" length="-1.00" nVehEntered="0"/>
    <interval begin="30.00" end="60.00" id="mainline_eval_4_3" nVehContrib="0" flow="0.00" occupancy="0.00" speed="-1.00" harmonicMeanSpeed="-1.00" length="-1.00" nVehEntered="0"/>
    <interval begin="30.00" end="60.00" id="mainline_eval_5_0" nVehContrib="0" flow="0.00" occupancy="0.00" speed="-1.00" harmonicMeanSpeed="-1.00" length="-1.00" nVehEntered="0"/>
    <interval begin="30.00" end="60.00" id="mainline_eval_5_1" nVehContrib="0" flow="0.00" occupancy="0.00" speed="-1.00" harmonicMeanSpeed="-1.00" length="-1.00" nVehEntered="0"/>
    <interval begin="30.00" end="60.00" id="mainline_eval_5_2" nVehContrib="0" flow="0.00" occupancy="0.00" speed="-1.00" harmonicMeanSpeed="-1.00" length="-1.00" nVehEntered="0"/>
    <interval begin="30.00" end="60.00" id="mainline_eval_6_0" nVehContrib="0" flow="0.00" occupancy="0.00" speed="-1.00" harmonicMeanSpeed="-1.00" length="-1.00" nVehEntered="0"/>
    <interval begin="30.00" end="60.00" id="mainline_eval_6_1" nVehContrib="0" flow="0.00" occupancy="0.00" speed="-1.00" harmonicMeanSpeed="-1.00" length="-1.00" nVehEntered="0"/>
    <interval begin="30.00" end="60.00" id="mainline_eval_6_2" nVehContrib="0" flow="0.00" occupancy="0.00" speed="-1.00" harmonicMeanSpeed="-1.00" length="-1.00" nVehEntered="0"/>
    <interval begin="60.00" end="90.00" id="mainline_eval_0_0" nVehContrib="11" flow="1320.00" occupancy="14.22" speed="12.93" harmonicMeanSpeed="12.89" length="5.00" nVehEntered="11"/>
    <interval begin="60.00" end="90.00" id="mainline_eval_0_1" nVehContrib="11" flow="1320.00" occupancy="14.08" speed="13.14" harmonicMeanSpeed="13.02" length="5.00" nVehEntered="11"/>
    <interval begin="60.00" end="90.00" id="mainline_eval_0_2" nVehContrib="9" flow="1080.00" occupancy="11.23" speed="13.47" harmonicMeanSpeed="13.36" length="5.00" nVehEntered="9"/>
    <interval begin="60.00" end="90.00" id="mainline_eval_1_0" nVehContrib="4" flow="480.00" occupancy="3.20" speed="20.89" harmonicMeanSpeed="20.85" length="5.00" nVehEntered="4"/>
    <interval begin="60.00" end="90.00" id="mainline_eval_1_1" nVehContrib="4" flow="480.00" occupancy="3.44" speed="19.40" harmonicMeanSpeed="19.40" length="5.00" nVehEntered="4"/>
    <interval begin="60.00" end="90.00" id="mainline_eval_1_2" nVehContrib="9" flow="1080.00" occupancy="6.94" speed="21.61" harmonicMeanSpeed="21.60" length="5.00" nVehEntered="9"/>
    <interval begin="60.00" end="90.00" id="mainline_eval_2_0" nVehContrib="0" flow="0.00" occupancy="0.00" speed="-1.00" harmonicMeanSpeed="-1.00" length="-1.00" nVehEntered="0"/>
    <interval begin="60.00" end="90.00" id="mainline_eval_2_1" nVehContrib="0" flow="0.00" occupancy="0.00" speed="-1.00" harmonicMeanSpeed="-1.00" length="-1.00" nVehEntered="0"/>
    <interval begin="60.00" end="90.00" id="mainline_eval_2_2" nVehContrib="0" flow="0.00" occupancy="0.00" speed="-1.00" harmonicMeanSpeed="-1.00" length="-1.00" nVehEntered="0"/>
    <interval begin="60.00" end="90.00" id="mainline_eval_3_0" nVehContrib="0" flow="0.00" occupancy="0.00" speed="-1.00" harmonicMeanSpeed="-1.00" length="-1.00" nVehEntered="0"/>
    <interval begin="60.00" end="90.00" id="mainline_eval_3_1" nVehContrib="0" flow="0.00" occupancy="0.00" speed="-1.00" harmonicMeanSpeed="-1.00" length="-1.00" nVehEntered="0"/>
    <interval begin="60.00" end="90.00" id="mainline_eval_3_2" nVehContrib="0" flow="0.00" occupancy="0.00" speed="-1.00" harmonicMeanSpeed="-1.00" length="-1.00" nVehEntered="0"/>
    <interval begin="60.00" end="90.00" id="mainline_eval_3_3" nVehContrib="0" flow="0.00" occupancy="0.00" speed="-1.00" harmonicMeanSpeed="-1.00" length="-1.00" nVehEntered="0"/>
    <interval begin="60.00" end="90.00" id="mainline_eval_4_0" nVehContrib="0" flow="0.00" occupancy="0.00" speed="-1.00" harmonicMeanSpeed="-1.00" length="-1.00" nVehEntered="0"/>
    <interval begin="60.00" end="90.00" id="mainline_eval_4_1" nVehContrib="0" flow="0.00" occupancy="0.00" speed="-1.00" harmonicMeanSpeed="-1.00" length="-1.00" nVehEntered="0"/>
    <interval begin="60.00" end="90.00" id="mainline_eval_4_2" nVehContrib="0" flow="0.00" occupancy="0.00" speed="-1.00" harmonicMeanSpeed="-1.00" length="-1.00" nVehEntered="0"/>
    <interval begin="60.00" end="90.00" id="mainline_eval_4_3" nVehContrib="0" flow="0.00" occupancy="0.00" speed="-1.00" harmonicMeanSpeed="-1.00" length="-1.00" nVehEntered="0"/>
    <interval begin="60.00" end="90.00" id="mainline_eval_5_0" nVehContrib="0" flow="0.00" occupancy="0.00" speed="-1.00" harmonicMeanSpeed="-1.00" length="-1.00" nVehEntered="0"/>
    <interval begin="60.00" end="90.00" id="mainline_eval_5_1" nVehContrib="0" flow="0.00" occupancy="0.00" speed="-1.00" harmonicMeanSpeed="-1.00" length="-1.00" nVehEntered="0"/>
    <interval begin="60.00" end="90.00" id="mainline_eval_5_2" nVehContrib="0" flow="0.00" occupancy="0.00" speed="-1.00" harmonicMeanSpeed="-1.00" length="-1.00" nVehEntered="0"/>
    <interval begin="60.00" end="90.00" id="mainline_eval_6_0" nVehContrib="0" flow="0.00" occupancy="0.00" speed="-1.00" harmonicMeanSpeed="-1.00" length="-1.00" nVehEntered="0"/>
    <interval begin="60.00" end="90.00" id="mainline_eval_6_1" nVehContrib="0" flow="0.00" occupancy="0.00" speed="-1.00" harmonicMeanSpeed="-1.00" length="-1.00" nVehEntered="0"/>
    <interval begin="60.00" end="90.00" id="mainline_eval_6_2" nVehContrib="0" flow="0.00" occupancy="0.00" speed="-1.00" harmonicMeanSpeed="-1.00" length="-1.00" nVehEntered="0"/>
    <interval begin="90.00" end="120.00" id="mainline_eval_0_0" nVehContrib="12" flow="1440.00" occupancy="15.50" speed="13.04" harmonicMeanSpeed="12.90" length="5.00" nVehEntered="12"/>
    <interval begin="90.00" end="120.00" id="mainline_eval_0_1" nVehContrib="12" flow="1440.00" occupancy="15.70" speed="12.92" harmonicMeanSpeed="12.74" length="5.00" nVehEntered="12"/>
    <interval begin="90.00" end="120.00" id="mainline_eval_0_2" nVehContrib="12" flow="1440.00" occupancy="15.37" speed="13.07" harmonicMeanSpeed="13.01" length="5.00" nVehEntered="12"/>
    <interval begin="90.00" end="120.00" id="mainline_eval_1_0" nVehContrib="5" flow="600.00" occupancy="4.42" speed="18.87" harmonicMeanSpeed="18.84" length="5.00" nVehEntered="6"/>
    <interval begin="90.00" end="120.00" id="mainline_eval_1_1" nVehContrib="11" flow="1320.00" occupancy="14.63" speed="17.05" harmonicMeanSpeed="12.53" length="5.00" nVehEntered="11"/>
    <interval begin="90.00" end="120.00" id="mainline_eval_1_2" nVehContrib="9" flow="1080.00" occupancy="7.26" speed="20.67" harmonicMeanSpeed="20.66" length="5.00" nVehEntered="10"/>
    <interval begin="90.00" end="120.00" id="mainline_eval_2_0" nVehContrib="0" flow="0.00" occupancy="0.00" speed="-1.00" harmonicMeanSpeed="-1.00" length="-1.00" nVehEntered="0"/>
    <interval begin="90.00" end="120.00" id="mainline_eval_2_1" nVehContrib="3" flow="360.00" occupancy="2.43" speed="20.67" harmonicMeanSpeed="20.60" length="5.00" nVehEntered="3"/>
    <interval begin="90.00" end="120.00" id="mainline_eval_2_2" nVehContrib="3" flow="360.00" occupancy="2.29" speed="21.79" harmonicMeanSpeed="21.79" length="5.00" nVehEntered="3"/>
    <interval begin="90.00" end="120.00" id="mainline_eval_3_0" nVehContrib="0" flow="0.00" occupancy="0.00" speed="-1.00" harmonicMeanSpeed="-1.00" length="-1.00" nVehEntered="0"/>
    <interval begin="90.00" end="120.00" id="mainline_eval_3_1" nVehContrib="1" flow="120.00" occupancy="0.97" speed="17.24" harmonicMeanSpeed="17.24" length="5.00" nVehEntered="1"/>
    <interval begin="90.00" end="120.00" id="mainline_eval_3_2" nVehContrib="2" flow="240.00" occupancy="1.59" speed="20.97" harmonicMeanSpeed="20.97" length="5.00" nVehEntered="3"/>
    <interval begin="90.00" end="120.00" id="mainline_eval_3_3" nVehContrib="4" flow="480.00" occupancy="6.17" speed="17.30" harmonicMeanSpeed="10.80" length="5.00" nVehEntered="4"/>
    <interval begin="90.00" end="120.00" id="mainline_eval_4_0" nVehContrib="0" flow="0.00" occupancy="0.00" speed="-1.00" harmonicMeanSpeed="-1.00" length="-1.00" nVehEntered="0"/>
    <interval begin="90.00" end="120.00" id="mainline_eval_4_1" nVehContrib="1" flow="120.00" occupancy="0.80" speed="20.74" harmonicMeanSpeed="20.74" length="5.00" nVehEntered="1"/>
    <interval begin="90.00" end="120.00" id="mainline_eval_4_2" nVehContrib="1" flow="120.00" occupancy="0.82" speed="20.37" harmonicMeanSpeed="20.37" length="5.00" nVehEntered="1"/>
    <interval begin="90.00" end="120.00" id="mainline_eval_4_3" nVehContrib="3" flow="360.00" occupancy="2.29" speed="21.79" harmonicMeanSpeed="21.79" length="5.00" nVehEntered="3"/>
    <interval begin="90.00" end="120.00" id="mainline_eval_5_0" nVehContrib="0" flow="0.00" occupancy="0.00" speed="-1.00" harmonicMeanSpeed="-1.00" length="-1.00" nVehEntered="0"/>
    <interval begin="90.00" end="120.00" id="mainline_eval_5_1" nVehContrib="0" flow="0.00" occupancy="0.00" speed="-1.00" harmonicMeanSpeed="-1.00" length="-1.00" nVehEntered="0"/>
    <interval begin="90.00" end="120.00" id="mainline_eval_5_2" nVehContrib="0" flow="0.00" occupancy="0.00" speed="-1.00" harmonicMeanSpeed="-1.00" length="-1.00" nVehEntered="0"/>
    <interval begin="90.00" end="120.00" id="mainline_eval_6_0" nVehContrib="0" flow="0.00" occupancy="0.00" speed="-1.00" harmonicMeanSpeed="-1.00" length="-1.00" nVehEntered="0"/>
    <interval begin="90.00" end="120.00" id="mainline_eval_6_1" nVehContrib="0" flow="0.00" occupancy="0.00" speed="-1.00" harmonicMeanSpeed="-1.00" length="-1.00" nVehEntered="0"/>
    <interval begin="90.00" end="120.00" id="mainline_eval_6_2" nVehContrib="0" flow="0.00" occupancy="0.00" speed="-1.00" harmonicMeanSpeed="-1.00" length="-1.00" nVehEntered="0"/>
    <interval begin="120.00" end="150.00" id="mainline_eval_0_0" nVehContrib="13" flow="1560.00" occupancy="17.02" speed="12.79" harmonicMeanSpeed="12.73" length="5.00" nVehEntered="13"/>
    <interval begin="120.00" end="150.00" id="mainline_eval_0_1" nVehContrib="12" flow="1440.00" occupancy="15.22" speed="13.35" harmonicMeanSpeed="13.27" length="5.00" nVehEntered="13"/>
    <interval begin="120.00" end="150.00" id="mainline_eval_0_2" nVehContrib="11" flow="1320.00" occupancy="13.75" speed="13.47" harmonicMeanSpeed="13.33" length="5.00" nVehEntered="11"/>
    <interval begin="120.00" end="150.00" id="mainline_eval_1_0" nVehContrib="6" flow="720.00" occupancy="5.91" speed="16.99" harmonicMeanSpeed="16.92" length="5.00" nVehEntered="7"/>
    <interval begin="120.00" end="150.00" id="mainline_eval_1_1" nVehContrib="11" flow="1320.00" occupancy="13.36" speed="15.95" harmonicMeanSpeed="13.72" length="5.00" nVehEntered="11"/>
    <interval begin="120.00" end="150.00" id="mainline_eval_1_2" nVehContrib="12" flow="1440.00" occupancy="11.56" speed="17.32" harmonicMeanSpeed="17.30" length="5.00" nVehEntered="12"/>
    <interval begin="120.00" end="150.00" id="mainline_eval_2_0" nVehContrib="3" flow="360.00" occupancy="2.56" speed="19.54" harmonicMeanSpeed="19.52" length="5.00" nVehEntered="3"/>
    <interval begin="120.00" end="150.00" id="mainline_eval_2_1" nVehContrib="6" flow="720.00" occupancy="4.84" speed="20.72" harmonicMeanSpeed="20.68" length="5.00" nVehEntered="6"/>
    <interval begin="120.00" end="150.00" id="mainline_eval_2_2" nVehContrib="8" flow="960.00" occupancy="6.27" speed="21.28" harmonicMeanSpeed="21.25" length="5.00" nVehEntered="8"/>
    <interval begin="120.00" end="150.00" id="mainline_eval_3_0" nVehContrib="0" flow="0.00" occupancy="0.00" speed="-1.00" harmonicMeanSpeed="-1.00" length="-1.00" nVehEntered="0"/>
    <interval begin="120.00" end="150.00" id="mainline_eval_3_1" nVehContrib="3" flow="360.00" occupancy="2.52" speed="19.88" harmonicMeanSpeed="19.86" length="5.00" nVehEntered="3"/>
    <interval begin="120.00" end="150.00" id="mainline_eval_3_2" nVehContrib="6" flow="720.00" occupancy="7.91" speed="18.45" harmonicMeanSpeed="12.65" length="5.00" nVehEntered="6"/>
    <interval begin="120.00" end="150.00" id="mainline_eval_3_3" nVehContrib="6" flow="720.00" occupancy="4.69" speed="21.34" harmonicMeanSpeed="21.33" length="5.00" nVehEntered="7"/>
    <interval begin="120.00" end="150.00" id="mainline_eval_4_0" nVehContrib="0" flow="0.00" occupancy="0.00" speed="-1.00" harmonicMeanSpeed="-1.00" length="-1.00" nVehEntered="0"/>
    <interval begin="120.00" end="150.00" id="mainline_eval_4_1" nVehContrib="3" flow="360.00" occupancy="2.56" speed="19.57" harmonicMeanSpeed="19.54" length="5.00" nVehEntered="3"/>
    <interval begin="120.00" end="150.00" id="mainline_eval_4_2" nVehContrib="4" flow="480.00" occupancy="3.20" speed="20.83" harmonicMeanSpeed="20.82" length="5.00" nVehEntered="4"/>
    <interval begin="120.00" end="150.00" id="mainline_eval_4_3" nVehContrib="10" flow="1200.00" occupancy="7.81" speed="21.36" harmonicMeanSpeed="21.35" length="5.00" nVehEntered="10"/>
    <interval begin="120.00" end="150.00" id="mainline_eval_5_0" nVehContrib="2" flow="240.00" occupancy="1.65" speed="20.33" harmonicMeanSpeed="20.24" length="5.00" nVehEntered="2"/>
    <interval begin="120.00" end="150.00" id="mainline_eval_5_1" nVehContrib="4" flow="480.00" occupancy="3.21" speed="20.80" harmonicMeanSpeed="20.79" length="5.00" nVehEntered="4"/>
    <interval begin="120.00" end="150.00" id="mainline_eval_5_2" nVehContrib="10" flow="1200.00" occupancy="7.69" speed="21.67" harmonicMeanSpeed="21.66" length="5.00" nVehEntered="10"/>
    <interval begin="120.00" end="150.00" id="mainline_eval_6_0" nVehContrib="1" flow="120.00" occupancy="0.76" speed="21.79" harmonicMeanSpeed="21.79" length="5.00" nVehEntered="1"/>
    <interval begin="120.00" end="150.00" id="mainline_eval_6_1" nVehContrib="2" flow="240.00" occupancy="1.66" speed="20.13" harmonicMeanSpeed="20.13" length="5.00" nVehEntered="2"/>
    <interval begin="120.00" end="150.00" id="mainline_eval_6_2" nVehContrib="7" flow="840.00" occupancy="5.30" speed="22.00" harmonicMeanSpeed="22.00" length="5.00" nVehEntered="7"/>
    <interval begin="150.00" end="180.00" id="mainline_eval_0_0" nVehContrib="12" flow="1440.00" occupancy="15.66" speed="12.89" harmonicMeanSpeed="12.77" length="5.00" nVehEntered="12"/>
    <interval begin="150.00" end="180.00" id="mainline_eval_0_1" nVehContrib="14" flow="1680.00" occupancy="17.19" speed="13.72" harmonicMeanSpeed="13.46" length="5.00" nVehEntered="13"/>
    <interval begin="150.00" end="180.00" id="mainline_eval_0_2" nVehContrib="11" flow="1320.00" occupancy="14.63" speed="12.69" harmonicMeanSpeed="12.53" length="5.00" nVehEntered="11"/>
    <interval begin="150.00" end="180.00" id="mainline_eval_1_0" nVehContrib="9" flow="1080.00" occupancy="9.02" speed="16.70" harmonicMeanSpeed="16.64" length="5.00" nVehEntered="9"/>
    <interval begin="150.00" end="180.00" id="mainline_eval_1_1" nVehContrib="10" flow="1200.00" occupancy="9.49" speed="17.59" harmonicMeanSpeed="17.56" length="5.00" nVehEntered="11"/>
    <interval begin="150.00" end="180.00" id="mainline_eval_1_2" nVehContrib="15" flow="1800.00" occupancy="16.31" speed="17.87" harmonicMeanSpeed="15.33" length="5.00" nVehEntered="15"/>
    <interval begin="150.00" end="180.00" id="mainline_eval_2_0" nVehContrib="5" flow="600.00" occupancy="4.66" speed="17.93" harmonicMeanSpeed="17.87" length="5.00" nVehEntered="5"/>
    <interval begin="150.00" end="180.00" id="mainline_eval_2_1" nVehContrib="5" flow="600.00" occupancy="4.78" speed="17.56" harmonicMeanSpeed="17.42" length="5.00" nVehEntered="5"/>
    <interval begin="150.00" end="180.00" id="mainline_eval_2_2" nVehContrib="10" flow="1200.00" occupancy="8.87" speed="18.85" harmonicMeanSpeed="18.78" length="5.00" nVehEntered="10"/>
    <interval begin="150.00" end="180.00" id="mainline_eval_3_0" nVehContrib="0" flow="0.00" occupancy="0.00" speed="-1.00" harmonicMeanSpeed="-1.00" length="-1.00" nVehEntered="0"/>
    <interval begin="150.00" end="180.00" id="mainline_eval_3_1" nVehContrib="5" flow="600.00" occupancy="5.06" speed="16.54" harmonicMeanSpeed="16.48" length="5.00" nVehEntered="6"/>
    <interval begin="150.00" end="180.00" id="mainline_eval_3_2" nVehContrib="8" flow="960.00" occupancy="10.78" speed="15.91" harmonicMeanSpeed="12.37" length="5.00" nVehEntered="8"/>
    <interval begin="150.00" end="180.00" id="mainline_eval_3_3" nVehContrib="12" flow="1440.00" occupancy="10.61" speed="18.88" harmonicMeanSpeed="18.85" length="5.00" nVehEntered="12"/>
    <interval begin="150.00" end="180.00" id="mainline_eval_4_0" nVehContrib="0" flow="0.00" occupancy="0.00" speed="-1.00" harmonicMeanSpeed="-1.00" length="-1.00" nVehEntered="0"/>
    <interval begin="150.00" end="180.00" id="mainline_eval_4_1" nVehContrib="7" flow="840.00" occupancy="9.32" speed="16.35" harmonicMeanSpeed="12.52" length="5.00" nVehEntered="7"/>
    <interval begin="150.00" end="180.00" id="mainline_eval_4_2" nVehContrib="6" flow="720.00" occupancy="5.47" speed="18.33" harmonicMeanSpeed="18.29" length="5.00" nVehEntered="7"/>
    <interval begin="150.00" end="180.00" id="mainline_eval_4_3" nVehContrib="12" flow="1440.00" occupancy="10.44" speed="19.17" harmonicMeanSpeed="19.15" length="5.00" nVehEntered="12"/>
    <interval begin="150.00" end="180.00" id="mainline_eval_5_0" nVehContrib="5" flow="600.00" occupancy="4.20" speed="19.85" harmonicMeanSpeed="19.82" length="5.00" nVehEntered="5"/>
    <interval begin="150.00" end="180.00" id="mainline_eval_5_1" nVehContrib="5" flow="600.00" occupancy="4.15" speed="20.20" harmonicMeanSpeed="20.09" length="5.00" nVehEntered="5"/>
    <interval begin="150.00" end="180.00" id="mainline_eval_5_2" nVehContrib="11" flow="1320.00" occupancy="9.08" speed="20.24" harmonicMeanSpeed="20.19" length="5.00" nVehEntered="11"/>
    <interval begin="150.00" end="180.00" id="mainline_eval_6_0" nVehContrib="5" flow="600.00" occupancy="4.44" speed="19.62" harmonicMeanSpeed="19.60" length="5.00" nVehEntered="6"/>
    <interval begin="150.00" end="180.00" id="mainline_eval_6_1" nVehContrib="5" flow="600.00" occupancy="3.95" speed="21.11" harmonicMeanSpeed="21.09" length="5.00" nVehEntered="5"/>
    <interval begin="150.00" end="180.00" id="mainline_eval_6_2" nVehContrib="10" flow="1200.00" occupancy="7.86" speed="21.22" harmonicMeanSpeed="21.20" length="5.00" nVehEntered="10"/>
    <interval begin="180.00" end="210.00" id="mainline_eval_0_0" nVehContrib="12" flow="1440.00" occupancy="16.28" speed="12.36" harmonicMeanSpeed="12.29" length="5.00" nVehEntered="12"/>
    <interval begin="180.00" end="210.00" id="mainline_eval_0_1" nVehContrib="11" flow="1320.00" occupancy="13.82" speed="13.40" harmonicMeanSpeed="13.26" length="5.00" nVehEntered="11"/>
    <interval begin="180.00" end="210.00" id="mainline_eval_0_2" nVehContrib="9" flow="1080.00" occupancy="11.16" speed="13.51" harmonicMeanSpeed="13.44" length="5.00" nVehEntered="9"/>
    <interval begin="180.00" end="210.00" id="mainline_eval_1_0" nVehContrib="12" flow="1440.00" occupancy="11.43" speed="17.62" harmonicMeanSpeed="17.50" length="5.00" nVehEntered="12"/>
    <interval begin="180.00" end="210.00" id="mainline_eval_1_1" nVehContrib="15" flow="1800.00" occupancy="12.99" speed="19.29" harmonicMeanSpeed="19.24" length="5.00" nVehEntered="15"/>
    <interval begin="180.00" end="210.00" id="mainline_eval_1_2" nVehContrib="13" flow="1560.00" occupancy="10.90" speed="19.94" harmonicMeanSpeed="19.88" length="5.00" nVehEntered="13"/>
    <interval begin="180.00" end="210.00" id="mainline_eval_2_0" nVehContrib="7" flow="840.00" occupancy="7.25" speed="16.13" harmonicMeanSpeed="16.10" length="5.00" nVehEntered="7"/>
    <interval begin="180.00" end="210.00" id="mainline_eval_2_1" nVehContrib="12" flow="1440.00" occupancy="12.00" speed="16.71" harmonicMeanSpeed="16.67" length="5.00" nVehEntered="12"/>
    <interval begin="180.00" end="210.00" id="mainline_eval_2_2" nVehContrib="12" flow="1440.00" occupancy="11.75" speed="17.74" harmonicMeanSpeed="17.73" length="5.00" nVehEntered="13"/>
    <interval begin="180.00" end="210.00" id="mainline_eval_3_0" nVehContrib="0" flow="0.00" occupancy="0.00" speed="-1.00" harmonicMeanSpeed="-1.00" length="-1.00" nVehEntered="0"/>
    <interval begin="180.00" end="210.00" id="mainline_eval_3_1" nVehContrib="6" flow="720.00" occupancy="5.76" speed="17.40" harmonicMeanSpeed="17.36" length="5.00" nVehEntered="7"/>
    <interval begin="180.00" end="210.00" id="mainline_eval_3_2" nVehContrib="10" flow="1200.00" occupancy="12.05" speed="16.06" harmonicMeanSpeed="13.84" length="5.00" nVehEntered="10"/>
    <interval begin="180.00" end="210.00" id="mainline_eval_3_3" nVehContrib="11" flow="1320.00" occupancy="10.41" speed="17.61" harmonicMeanSpeed="17.60" length="5.00" nVehEntered="11"/>
    <interval begin="180.00" end="210.00" id="mainline_eval_4_0" nVehContrib="0" flow="0.00" occupancy="0.00" speed="-1.00" harmonicMeanSpeed="-1.00" length="-1.00" nVehEntered="0"/>
    <interval begin="180.00" end="210.00" id="mainline_eval_4_1" nVehContrib="6" flow="720.00" occupancy="5.75" speed="17.43" harmonicMeanSpeed="17.40" length="5.00" nVehEntered="6"/>
    <interval begin="180.00" end="210.00" id="mainline_eval_4_2" nVehContrib="7" flow="840.00" occupancy="6.73" speed="17.44" harmonicMeanSpeed="17.42" length="5.00" nVehEntered="8"/>
    <interval begin="180.00" end="210.00" id="mainline_eval_4_3" nVehContrib="9" flow="1080.00" occupancy="8.53" speed="17.60" harmonicMeanSpeed="17.59" length="5.00" nVehEntered="9"/>
    <interval begin="180.00" end="210.00" id="mainline_eval_5_0" nVehContrib="5" flow="600.00" occupancy="4.81" speed="17.36" harmonicMeanSpeed="17.33" length="5.00" nVehEntered="5"/>