<?xml version="1.0" encoding="UTF-8"?>

<!-- generated on 06/06/20 16:09:48 by Eclipse SUMO Version 1.3.1
<configuration xmlns:xsi="http://www.w3.org/2001/XMLSchema-instance" xsi:noNamespaceSchemaLocation="http://sumo.dlr.de/xsd/sumoConfiguration.xsd">

    <input>
        <net-file value="./Project/ramp.net.xml"/>
        <route-files value="./Project/ramp.rou.xml"/>
        <additional-files value="./Project/ramp.add.xml"/>
    </input>

    <time>
        <begin value="0"/>
        <end value="9300"/>
    </time>

    <processing>
        <emergencydecel.warning-threshold value="1.2"/>
    </processing>

    <report>
        <verbose value="true"/>
        <no-step-log value="true"/>
    </report>

    <traci_server>
        <remote-port value="52166"/>
    </traci_server>

    <random_number>
        <seed value="1103291464"/>
    </random_number>

    <gui_only>
        <gui-settings-file value="./Project/viewsettings.xml"/>
        <quit-on-end value="true"/>
        <start value="true"/>
    </gui_only>

</configuration>
-->

<detector xmlns:xsi="http://www.w3.org/2001/XMLSchema-instance" xsi:noNamespaceSchemaLocation="http://sumo.dlr.de/xsd/det_e1_file.xsd">
    <interval begin="0.00" end="30.00" id="mainline_eval_0_0" nVehContrib="6" flow="720.00" occupancy="7.75" speed="12.94" harmonicMeanSpeed="12.90" length="5.00" nVehEntered="6"/>
    <interval begin="0.00" end="30.00" id="mainline_eval_0_1" nVehContrib="6" flow="720.00" occupancy="7.19" speed="13.96" harmonicMeanSpeed="13.91" length="5.00" nVehEntered="6"/>
    <interval begin="0.00" end="30.00" id="mainline_eval_0_2" nVehContrib="5" flow="600.00" occupancy="6.60" speed="12.69" harmonicMeanSpeed="12.62" length="5.00" nVehEntered="5"/>
    <interval begin="0.00" end="30.00" id="mainline_eval_1_0" nVehContrib="0" flow="0.00" occupancy="0.00" speed="-1.00" harmonicMeanSpeed="-1.00" length="-1.00" nVehEntered="0"/>
    <interval begin="0.00" end="30.00" id="mainline_eval_1_1" nVehContrib="0" flow="0.00" occupancy="0.00" speed="-1.00" harmonicMeanSpeed="-1.00" length="-1.00" nVehEntered="0"/>
    <interval begin="0.00" end="30.00" id="mainline_eval_1_2" nVehContrib="0" flow="0.00" occupancy="0.00" speed="-1.00" harmonicMeanSpeed="-1.00" length="-1.00" nVehEntered="0"/>
    <interval begin="0.00" end="30.00" id="mainline_eval_2_0" nVehContrib="0" flow="0.00" occupancy="0.00" speed="-1.00" harmonicMeanSpeed="-1.00" length="-1.00" nVehEntered="0"/>
    <interval begin="0.00" end="30.00" id="mainline_eval_2_1" nVehContrib="0" flow="0.00" occupancy="0.00" speed="-1.00" harmonicMeanSpeed="-1.00" length="-1.00" nVehEntered="0"/>
    <interval begin="0.00" end="30.00" id="mainline_eval_2_2" nVehContrib="0" flow="0.00" occupancy="0.00" speed="-1.00" harmonicMeanSpeed="-1.00" length="-1.00" nVehEntered="0"/>
    <interval begin="0.00" end="30.00" id="mainline_eval_3_0" nVehContrib="0" flow="0.00" occupancy="0.00" speed="-1.00" harmonicMeanSpeed="-1.00" length="-1.00" nVehEntered="0"/>
    <interval begin="0.00" end="30.00" id="mainline_eval_3_1" nVehContrib="0" flow="0.00" occupancy="0.00" speed="-1.00" harmonicMeanSpeed="-1.00" length="-1.00" nVehEntered="0"/>
    <interval begin="0.00" end="30.00" id="mainline_eval_3_2" nVehContrib="0" flow="0.00" occupancy="0.00" speed="-1.00" harmonicMeanSpeed="-1.00" length="-1.00" nVehEntered="0"/>
    <interval begin="0.00" end="30.00" id="mainline_eval_3_3" nVehContrib="0" flow="0.00" occupancy="0.00" speed="-1.00" harmonicMeanSpeed="-1.00" length="-1.00" nVehEntered="0"/>
    <interval begin="0.00" end="30.00" id="mainline_eval_4_0" nVehContrib="0" flow="0.00" occupancy="0.00" speed="-1.00" harmonicMeanSpeed="-1.00" length="-1.00" nVehEntered="0"/>
    <interval begin="0.00" end="30.00" id="mainline_eval_4_1" nVehContrib="0" flow="0.00" occupancy="0.00" speed="-1.00" harmonicMeanSpeed="-1.00" length="-1.00" nVehEntered="0"/>
    <interval begin="0.00" end="30.00" id="mainline_eval_4_2" nVehContrib="0" flow="0.00" occupancy="0.00" speed="-1.00" harmonicMeanSpeed="-1.00" length="-1.00" nVehEntered="0"/>
    <interval begin="0.00" end="30.00" id="mainline_eval_4_3" nVehContrib="0" flow="0.00" occupancy="0.00" speed="-1.00" harmonicMeanSpeed="-1.00" length="-1.00" nVehEntered="0"/>
    <interval begin="0.00" end="30.00" id="mainline_eval_5_0" nVehContrib="0" flow="0.00" occupancy="0.00" speed="-1.00" harmonicMeanSpeed="-1.00" length="-1.00" nVehEntered="0"/>
    <interval begin="0.00" end="30.00" id="mainline_eval_5_1" nVehContrib="0" flow="0.00" occupancy="0.00" speed="-1.00" harmonicMeanSpeed="-1.00" length="-1.00" nVehEntered="0"/>
    <interval begin="0.00" end="30.00" id="mainline_eval_5_2" nVehContrib="0" flow="0.00" occupancy="0.00" speed="-1.00" harmonicMeanSpeed="-1.00" length="-1.00" nVehEntered="0"/>
    <interval begin="0.00" end="30.00" id="mainline_eval_6_0" nVehContrib="0" flow="0.00" occupancy="0.00" speed="-1.00" harmonicMeanSpeed="-1.00" length="-1.00" nVehEntered="0"/>
    <interval begin="0.00" end="30.00" id="mainline_eval_6_1" nVehContrib="0" flow="0.00" occupancy="0.00" speed="-1.00" harmonicMeanSpeed="-1.00" length="-1.00" nVehEntered="0"/>
    <interval begin="0.00" end="30.00" id="mainline_eval_6_2" nVehContrib="0" flow="0.00" occupancy="0.00" speed="-1.00" harmonicMeanSpeed="-1.00" length="-1.00" nVehEntered="0"/>
    <interval begin="30.00" end="60.00" id="mainline_eval_0_0" nVehContrib="9" flow="1080.00" occupancy="11.24" speed="13.71" harmonicMeanSpeed="13.35" length="5.00" nVehEntered="9"/>
    <interval begin="30.00" end="60.00" id="mainline_eval_0_1" nVehContrib="11" flow="1320.00" occupancy="13.69" speed="13.60" harmonicMeanSpeed="13.45" length="5.00" nVehEntered="12"/>
    <interval begin="30.00" end="60.00" id="mainline_eval_0_2" nVehContrib="8" flow="960.00" occupancy="10.00" speed="13.89" harmonicMeanSpeed="13.76" length="5.00" nVehEntered="9"/>
    <interval begin="30.00" end="60.00" id="mainline_eval_1_0" nVehContrib="0" flow="0.00" occupancy="0.00" speed="-1.00" harmonicMeanSpeed="-1.00" length="-1.00" nVehEntered="0"/>
    <interval begin="30.00" end="60.00" id="mainline_eval_1_1" nVehContrib="0" flow="0.00" occupancy="0.00" speed="-1.00" harmonicMeanSpeed="-1.00" length="-1.00" nVehEntered="0"/>
    <interval begin="30.00" end="60.00" id="mainline_eval_1_2" nVehContrib="0" flow="0.00" occupancy="0.00" speed="-1.00" harmonicMeanSpeed="-1.00" length="-1.00" nVehEntered="0"/>
    <interval begin="30.00" end="60.00" id="mainline_eval_2_0" nVehContrib="0" flow="0.00" occupancy="0.00" speed="-1.00" harmonicMeanSpeed="-1.00" length="-1.00" nVehEntered="0"/>
    <interval begin="30.00" end="60.00" id="mainline_eval_2_1" nVehContrib="0" flow="0.00" occupancy="0.00" speed="-1.00" harmonicMeanSpeed="-1.00" length="-1.00" nVehEntered="0"/>
    <interval begin="30.00" end="60.00" id="mainline_eval_2_2" nVehContrib="0" flow="0.00" occupancy="0.00" speed="-1.00" harmonicMeanSpeed="-1.00" length="-1.00" nVehEntered="0"/>
    <interval begin="30.00" end="60.00" id="mainline_eval_3_0" nVehContrib="0" flow="0.00" occupancy="0.00" speed="-1.00" harmonicMeanSpeed="-1.00" length="-1.00" nVehEntered="0"/>
    <interval begin="30.00" end="60.00" id="mainline_eval_3_1" nVehContrib="0" flow="0.00" occupancy="0.00" speed="-1.00" harmonicMeanSpeed="-1.00" length="-1.00" nVehEntered="0"/>
    <interval begin="30.00" end="60.00" id="mainline_eval_3_2" nVehContrib="0" flow="0.00" occupancy="0.00" speed="-1.00" harmonicMeanSpeed="-1.00" length="-1.00" nVehEntered="0"/>
    <interval begin="30.00" end="60.00" id="mainline_eval_3_3" nVehContrib="0" flow="0.00" occupancy="0.00" speed="-1.00" harmonicMeanSpeed="-1.00" length="-1.00" nVehEntered="0"/>
    <interval begin="30.00" end="60.00" id="mainline_eval_4_0" nVehContrib="0" flow="0.00" occupancy="0.00" speed="-1.00" harmonicMeanSpeed="-1.00" length="-1.00" nVehEntered="0"/>
    <interval begin="30.00" end="60.00" id="mainline_eval_4_1" nVehContrib="0" flow="0.00" occupancy="0.00" speed="-1.00" harmonicMeanSpeed="-1.00" length="-1.00" nVehEntered="0"/>
    <interval begin="30.00" end="60.00" id="mainline_eval_4_2" nVehContrib="0" flow="0.00" occupancy="0.00" speed="-1.00" harmonicMeanSpeed="-1.00" length="-1.00" nVehEntered="0"/>
    <interval begin="30.00" end="60.00" id="mainline_eval_4_3" nVehContrib="0" flow="0.00" occupancy="0.00" speed="-1.00" harmonicMeanSpeed="-1.00" length="-1.00" nVehEntered="0"/>
    <interval begin="30.00" end="60.00" id="mainline_eval_5_0" nVehContrib="0" flow="0.00" occupancy="0.00" speed="-1.00" harmonicMeanSpeed="-1.00" length="-1.00" nVehEntered="0"/>
    <interval begin="30.00" end="60.00" id="mainline_eval_5_1" nVehContrib="0" flow="0.00" occupancy="0.00" speed="-1.00" harmonicMeanSpeed="-1.00" length="-1.00" nVehEntered="0"/>
    <interval begin="30.00" end="60.00" id="mainline_eval_5_2" nVehContrib="0" flow="0.00" occupancy="0.00" speed="-1.00" harmonicMeanSpeed="-1.00" length="-1.00" nVehEntered="0"/>
    <interval begin="30.00" end="60.00" id="mainline_eval_6_0" nVehContrib="0" flow="0.00" occupancy="0.00" speed="-1.00" harmonicMeanSpeed="-1.00" length="-1.00" nVehEntered="0"/>
    <interval begin="30.00" end="60.00" id="mainline_eval_6_1" nVehContrib="0" flow="0.00" occupancy="0.00" speed="-1.00" harmonicMeanSpeed="-1.00" length="-1.00" nVehEntered="0"/>
    <interval begin="30.00" end="60.00" id="mainline_eval_6_2" nVehContrib="0" flow="0.00" occupancy="0.00" speed="-1.00" harmonicMeanSpeed="-1.00" length="-1.00" nVehEntered="0"/>
    <interval begin="60.00" end="90.00" id="mainline_eval_0_0" nVehContrib="12" flow="1440.00" occupancy="14.81" speed="13.59" harmonicMeanSpeed="13.51" length="5.00" nVehEntered="12"/>
    <interval begin="60.00" end="90.00" id="mainline_eval_0_1" nVehContrib="13" flow="1560.00" occupancy="16.35" speed="13.29" harmonicMeanSpeed="13.21" length="5.00" nVehEntered="12"/>
    <interval begin="60.00" end="90.00" id="mainline_eval_0_2" nVehContrib="13" flow="1560.00" occupancy="16.24" speed="13.14" harmonicMeanSpeed="13.10" length="5.00" nVehEntered="12"/>
    <interval begin="60.00" end="90.00" id="mainline_eval_1_0" nVehContrib="3" flow="360.00" occupancy="2.51" speed="20.05" harmonicMeanSpeed="19.95" length="5.00" nVehEntered="3"/>
    <interval begin="60.00" end="90.00" id="mainline_eval_1_1" nVehContrib="6" flow="720.00" occupancy="5.10" speed="19.66" harmonicMeanSpeed="19.60" length="5.00" nVehEntered="6"/>
    <interval begin="60.00" end="90.00" id="mainline_eval_1_2" nVehContrib="7" flow="840.00" occupancy="5.69" speed="20.53" harmonicMeanSpeed="20.51" length="5.00" nVehEntered="7"/>
    <interval begin="60.00" end="90.00" id="mainline_eval_2_0" nVehContrib="0" flow="0.00" occupancy="0.00" speed="-1.00" harmonicMeanSpeed="-1.00" length="-1.00" nVehEntered="0"/>
    <interval begin="60.00" end="90.00" id="mainline_eval_2_1" nVehContrib="0" flow="0.00" occupancy="0.00" speed="-1.00" harmonicMeanSpeed="-1.00" length="-1.00" nVehEntered="0"/>
    <interval begin="60.00" end="90.00" id="mainline_eval_2_2" nVehContrib="0" flow="0.00" occupancy="0.00" speed="-1.00" harmonicMeanSpeed="-1.00" length="-1.00" nVehEntered="0"/>
    <interval begin="60.00" end="90.00" id="mainline_eval_3_0" nVehContrib="0" flow="0.00" occupancy="0.00" speed="-1.00" harmonicMeanSpeed="-1.00" length="-1.00" nVehEntered="0"/>
    <interval begin="60.00" end="90.00" id="mainline_eval_3_1" nVehContrib="0" flow="0.00" occupancy="0.00" speed="-1.00" harmonicMeanSpeed="-1.00" length="-1.00" nVehEntered="0"/>
    <interval begin="60.00" end="90.00" id="mainline_eval_3_2" nVehContrib="0" flow="0.00" occupancy="0.00" speed="-1.00" harmonicMeanSpeed="-1.00" length="-1.00" nVehEntered="0"/>
    <interval begin="60.00" end="90.00" id="mainline_eval_3_3" nVehContrib="0" flow="0.00" occupancy="0.00" speed="-1.00" harmonicMeanSpeed="-1.00" length="-1.00" nVehEntered="0"/>
    <interval begin="60.00" end="90.00" id="mainline_eval_4_0" nVehContrib="0" flow="0.00" occupancy="0.00" speed="-1.00" harmonicMeanSpeed="-1.00" length="-1.00" nVehEntered="0"/>
    <interval begin="60.00" end="90.00" id="mainline_eval_4_1" nVehContrib="0" flow="0.00" occupancy="0.00" speed="-1.00" harmonicMeanSpeed="-1.00" length="-1.00" nVehEntered="0"/>
    <interval begin="60.00" end="90.00" id="mainline_eval_4_2" nVehContrib="0" flow="0.00" occupancy="0.00" speed="-1.00" harmonicMeanSpeed="-1.00" length="-1.00" nVehEntered="0"/>
    <interval begin="60.00" end="90.00" id="mainline_eval_4_3" nVehContrib="0" flow="0.00" occupancy="0.00" speed="-1.00" harmonicMeanSpeed="-1.00" length="-1.00" nVehEntered="0"/>
    <interval begin="60.00" end="90.00" id="mainline_eval_5_0" nVehContrib="0" flow="0.00" occupancy="0.00" speed="-1.00" harmonicMeanSpeed="-1.00" length="-1.00" nVehEntered="0"/>
    <interval begin="60.00" end="90.00" id="mainline_eval_5_1" nVehContrib="0" flow="0.00" occupancy="0.00" speed="-1.00" harmonicMeanSpeed="-1.00" length="-1.00" nVehEntered="0"/>
    <interval begin="60.00" end="90.00" id="mainline_eval_5_2" nVehContrib="0" flow="0.00" occupancy="0.00" speed="-1.00" harmonicMeanSpeed="-1.00" length="-1.00" nVehEntered="0"/>
    <interval begin="60.00" end="90.00" id="mainline_eval_6_0" nVehContrib="0" flow="0.00" occupancy="0.00" speed="-1.00" harmonicMeanSpeed="-1.00" length="-1.00" nVehEntered="0"/>
    <interval begin="60.00" end="90.00" id="mainline_eval_6_1" nVehContrib="0" flow="0.00" occupancy="0.00" speed="-1.00" harmonicMeanSpeed="-1.00" length="-1.00" nVehEntered="0"/>
    <interval begin="60.00" end="90.00" id="mainline_eval_6_2" nVehContrib="0" flow="0.00" occupancy="0.00" speed="-1.00" harmonicMeanSpeed="-1.00" length="-1.00" nVehEntered="0"/>
    <interval begin="90.00" end="120.00" id="mainline_eval_0_0" nVehContrib="11" flow="1320.00" occupancy="13.04" speed="14.13" harmonicMeanSpeed="14.06" length="5.00" nVehEntered="11"/>
    <interval begin="90.00" end="120.00" id="mainline_eval_0_1" nVehContrib="13" flow="1560.00" occupancy="16.30" speed="13.36" harmonicMeanSpeed="13.29" length="5.00" nVehEntered="13"/>
    <interval begin="90.00" end="120.00" id="mainline_eval_0_2" nVehContrib="13" flow="1560.00" occupancy="16.74" speed="13.06" harmonicMeanSpeed="12.94" length="5.00" nVehEntered="13"/>
    <interval begin="90.00" end="120.00" id="mainline_eval_1_0" nVehContrib="5" flow="600.00" occupancy="7.41" speed="16.27" harmonicMeanSpeed="11.25" length="5.00" nVehEntered="6"/>
    <interval begin="90.00" end="120.00" id="mainline_eval_1_1" nVehContrib="9" flow="1080.00" occupancy="10.34" speed="18.00" harmonicMeanSpeed="14.51" length="5.00" nVehEntered="10"/>
    <interval begin="90.00" end="120.00" id="mainline_eval_1_2" nVehContrib="13" flow="1560.00" occupancy="10.63" speed="20.42" harmonicMeanSpeed="20.38" length="5.00" nVehEntered="13"/>
    <interval begin="90.00" end="120.00" id="mainline_eval_2_0" nVehContrib="1" flow="120.00" occupancy="1.58" speed="21.53" harmonicMeanSpeed="21.53" length="5.00" nVehEntered="2"/>
    <interval begin="90.00" end="120.00" id="mainline_eval_2_1" nVehContrib="1" flow="120.00" occupancy="0.78" speed="21.50" harmonicMeanSpeed="21.50" length="5.00" nVehEntered="1"/>
    <interval begin="90.00" end="120.00" id="mainline_eval_2_2" nVehContrib="0" flow="0.00" occupancy="0.00" speed="-1.00" harmonicMeanSpeed="-1.00" length="-1.00" nVehEntered="0"/>
    <interval begin="90.00" end="120.00" id="mainline_eval_3_0" nVehContrib="0" flow="0.00" occupancy="0.00" speed="-1.00" harmonicMeanSpeed="-1.00" length="-1.00" nVehEntered="0"/>
    <interval begin="90.00" end="120.00" id="mainline_eval_3_1" nVehContrib="1" flow="120.00" occupancy="0.77" speed="21.59" harmonicMeanSpeed="21.59" length="5.00" nVehEntered="1"/>
    <interval begin="90.00" end="120.00" id="mainline_eval_3_2" nVehContrib="1" flow="120.00" occupancy="0.77" speed="21.60" harmonicMeanSpeed="21.60" length="5.00" nVehEntered="1"/>
    <interval begin="90.00" end="120.00" id="mainline_eval_3_3" nVehContrib="0" flow="0.00" occupancy="0.00" speed="-1.00" harmonicMeanSpeed="-1.00" length="-1.00" nVehEntered="0"/>
    <interval begin="90.00" end="120.00" id="mainline_eval_4_0" nVehContrib="0" flow="0.00" occupancy="0.00" speed="-1.00" harmonicMeanSpeed="-1.00" length="-1.00" nVehEntered="0"/>
    <interval begin="90.00" end="120.00" id="mainline_eval_4_1" nVehContrib="1" flow="120.00" occupancy="0.77" speed="21.69" harmonicMeanSpeed="21.69" length="5.00" nVehEntered="1"/>
    <interval begin="90.00" end="120.00" id="mainline_eval_4_2" nVehContrib="1" flow="120.00" occupancy="0.76" speed="22.03" harmonicMeanSpeed="22.03" length="5.00" nVehEntered="1"/>
    <interval begin="90.00" end="120.00" id="mainline_eval_4_3" nVehContrib="0" flow="0.00" occupancy="0.00" speed="-1.00" harmonicMeanSpeed="-1.00" length="-1.00" nVehEntered="0"/>
    <interval begin="90.00" end="120.00" id="mainline_eval_5_0" nVehContrib="0" flow="0.00" occupancy="0.00" speed="-1.00" harmonicMeanSpeed="-1.00" length="-1.00" nVehEntered="0"/>
    <interval begin="90.00" end="120.00" id="mainline_eval_5_1" nVehContrib="0" flow="0.00" occupancy="0.00" speed="-1.00" harmonicMeanSpeed="-1.00" length="-1.00" nVehEntered="0"/>
    <interval begin="90.00" end="120.00" id="mainline_eval_5_2" nVehContrib="0" flow="0.00" occupancy="0.00" speed="-1.00" harmonicMeanSpeed="-1.00" length="-1.00" nVehEntered="0"/>
    <interval begin="90.00" end="120.00" id="mainline_eval_6_0" nVehContrib="0" flow="0.00" occupancy="0.00" speed="-1.00" harmonicMeanSpeed="-1.00" length="-1.00" nVehEntered="0"/>
    <interval begin="90.00" end="120.00" id="mainline_eval_6_1" nVehContrib="0" flow="0.00" occupancy="0.00" speed="-1.00" harmonicMeanSpeed="-1.00" length="-1.00" nVehEntered="0"/>
    <interval begin="90.00" end="120.00" id="mainline_eval_6_2" nVehContrib="0" flow="0.00" occupancy="0.00" speed="-1.00" harmonicMeanSpeed="-1.00" length="-1.00" nVehEntered="0"/>
    <interval begin="120.00" end="150.00" id="mainline_eval_0_0" nVehContrib="12" flow="1440.00" occupancy="15.05" speed="13.41" harmonicMeanSpeed="13.29" length="5.00" nVehEntered="12"/>
    <interval begin="120.00" end="150.00" id="mainline_eval_0_1" nVehContrib="12" flow="1440.00" occupancy="14.89" speed="13.52" harmonicMeanSpeed="13.43" length="5.00" nVehEntered="12"/>
    <interval begin="120.00" end="150.00" id="mainline_eval_0_2" nVehContrib="13" flow="1560.00" occupancy="17.20" speed="12.73" harmonicMeanSpeed="12.59" length="5.00" nVehEntered="13"/>
    <interval begin="120.00" end="150.00" id="mainline_eval_1_0" nVehContrib="6" flow="720.00" occupancy="5.85" speed="17.25" harmonicMeanSpeed="17.11" length="5.00" nVehEntered="6"/>
    <interval begin="120.00" end="150.00" id="mainline_eval_1_1" nVehContrib="11" flow="1320.00" occupancy="9.69" speed="19.00" harmonicMeanSpeed="18.93" length="5.00" nVehEntered="11"/>
    <interval begin="120.00" end="150.00" id="mainline_eval_1_2" nVehContrib="14" flow="1680.00" occupancy="11.99" speed="19.49" harmonicMeanSpeed="19.46" length="5.00" nVehEntered="14"/>
    <interval begin="120.00" end="150.00" id="mainline_eval_2_0" nVehContrib="7" flow="840.00" occupancy="5.59" speed="18.49" harmonicMeanSpeed="18.23" length="5.00" nVehEntered="6"/>
    <interval begin="120.00" end="150.00" id="mainline_eval_2_1" nVehContrib="6" flow="720.00" occupancy="5.08" speed="19.70" harmonicMeanSpeed="19.67" length="5.00" nVehEntered="6"/>
    <interval begin="120.00" end="150.00" id="mainline_eval_2_2" nVehContrib="11" flow="1320.00" occupancy="8.81" speed="20.83" harmonicMeanSpeed="20.80" length="5.00" nVehEntered="11"/>
    <interval begin="120.00" end="150.00" id="mainline_eval_3_0" nVehContrib="0" flow="0.00" occupancy="0.00" speed="-1.00" harmonicMeanSpeed="-1.00" length="-1.00" nVehEntered="0"/>
    <interval begin="120.00" end="150.00" id="mainline_eval_3_1" nVehContrib="6" flow="720.00" occupancy="5.39" speed="18.78" harmonicMeanSpeed="18.55" length="5.00" nVehEntered="6"/>
    <interval begin="120.00" end="150.00" id="mainline_eval_3_2" nVehContrib="7" flow="840.00" occupancy="5.94" speed="19.71" harmonicMeanSpeed="19.64" length="5.00" nVehEntered="7"/>
    <interval begin="120.00" end="150.00" id="mainline_eval_3_3" nVehContrib="10" flow="1200.00" occupancy="7.80" speed="21.39" harmonicMeanSpeed="21.37" length="5.00" nVehEntered="10"/>
    <interval begin="120.00" end="150.00" id="mainline_eval_4_0" nVehContrib="0" flow="0.00" occupancy="0.00" speed="-1.00" harmonicMeanSpeed="-1.00" length="-1.00" nVehEntered="0"/>
    <interval begin="120.00" end="150.00" id="mainline_eval_4_1" nVehContrib="5" flow="600.00" occupancy="4.34" speed="19.24" harmonicMeanSpeed="19.20" length="5.00" nVehEntered="5"/>
    <interval begin="120.00" end="150.00" id="mainline_eval_4_2" nVehContrib="7" flow="840.00" occupancy="11.26" speed="15.19" harmonicMeanSpeed="10.36" length="5.00" nVehEntered="7"/>
    <interval begin="120.00" end="150.00" id="mainline_eval_4_3" nVehContrib="8" flow="960.00" occupancy="6.16" speed="21.63" harmonicMeanSpeed="21.63" length="5.00" nVehEntered="10"/>
    <interval begin="120.00" end="150.00" id="mainline_eval_5_0" nVehContrib="5" flow="600.00" occupancy="4.08" speed="20.52" harmonicMeanSpeed="20.43" length="5.00" nVehEntered="5"/>
    <interval begin="120.00" end="150.00" id="mainline_eval_5_1" nVehContrib="4" flow="480.00" occupancy="3.17" speed="21.09" harmonicMeanSpeed="21.05" length="5.00" nVehEntered="4"/>
    <interval begin="120.00" end="150.00" id="mainline_eval_5_2" nVehContrib="5" flow="600.00" occupancy="3.85" speed="21.64" harmonicMeanSpeed="21.63" length="5.00" nVehEntered="5"/>
    <interval begin="120.00" end="150.00" id="mainline_eval_6_0" nVehContrib="3" flow="360.00" occupancy="2.42" speed="20.74" harmonicMeanSpeed="20.70" length="5.00" nVehEntered="3"/>
    <interval begin="120.00" end="150.00" id="mainline_eval_6_1" nVehContrib="2" flow="240.00" occupancy="1.59" speed="21.04" harmonicMeanSpeed="21.01" length="5.00" nVehEntered="2"/>
    <interval begin="120.00" end="150.00" id="mainline_eval_6_2" nVehContrib="2" flow="240.00" occupancy="1.51" speed="22.13" harmonicMeanSpeed="22.13" length="5.00" nVehEntered="2"/>
    <interval begin="150.00" end="180.00" id="mainline_eval_0_0" nVehContrib="13" flow="1560.00" occupancy="18.06" speed="12.13" harmonicMeanSpeed="12.00" length="5.00" nVehEntered="13"/>
    <interval begin="150.00" end="180.00" id="mainline_eval_0_1" nVehContrib="12" flow="1440.00" occupancy="15.45" speed="12.99" harmonicMeanSpeed="12.95" length="5.00" nVehEntered="12"/>
    <interval begin="150.00" end="180.00" id="mainline_eval_0_2" nVehContrib="13" flow="1560.00" occupancy="16.70" speed="13.10" harmonicMeanSpeed="12.97" length="5.00" nVehEntered="13"/>
    <interval begin="150.00" end="180.00" id="mainline_eval_1_0" nVehContrib="9" flow="1080.00" occupancy="8.35" speed="17.98" harmonicMeanSpeed="17.95" length="5.00" nVehEntered="9"/>
    <interval begin="150.00" end="180.00" id="mainline_eval_1_1" nVehContrib="15" flow="1800.00" occupancy="16.37" speed="17.43" harmonicMeanSpeed="15.27" length="5.00" nVehEntered="15"/>
    <interval begin="150.00" end="180.00" id="mainline_eval_1_2" nVehContrib="13" flow="1560.00" occupancy="11.30" speed="19.18" harmonicMeanSpeed="19.17" length="5.00" nVehEntered="14"/>
    <interval begin="150.00" end="180.00" id="mainline_eval_2_0" nVehContrib="4" flow="480.00" occupancy="3.44" speed="19.36" harmonicMeanSpeed="19.35" length="5.00" nVehEntered="4"/>
    <interval begin="150.00" end="180.00" id="mainline_eval_2_1" nVehContrib="10" flow="1200.00" occupancy="9.10" speed="18.54" harmonicMeanSpeed="18.31" length="5.00" nVehEntered="10"/>
    <interval begin="150.00" end="180.00" id="mainline_eval_2_2" nVehContrib="13" flow="1560.00" occupancy="10.40" speed="20.88" harmonicMeanSpeed="20.83" length="5.00" nVehEntered="13"/>
    <interval begin="150.00" end="180.00" id="mainline_eval_3_0" nVehContrib="0" flow="0.00" occupancy="0.00" speed="-1.00" harmonicMeanSpeed="-1.00" length="-1.00" nVehEntered="0"/>
    <interval begin="150.00" end="180.00" id="mainline_eval_3_1" nVehContrib="7" flow="840.00" occupancy="7.63" speed="17.49" harmonicMeanSpeed="17.24" length="5.00" nVehEntered="8"/>
    <interval begin="150.00" end="180.00" id="mainline_eval_3_2" nVehContrib="9" flow="1080.00" occupancy="7.95" speed="18.93" harmonicMeanSpeed="18.86" length="5.00" nVehEntered="9"/>
    <interval begin="150.00" end="180.00" id="mainline_eval_3_3" nVehContrib="15" flow="1800.00" occupancy="12.12" speed="20.69" harmonicMeanSpeed="20.62" length="5.00" nVehEntered="15"/>
    <interval begin="150.00" end="180.00" id="mainline_eval_4_0" nVehContrib="0" flow="0.00" occupancy="0.00" speed="-1.00" harmonicMeanSpeed="-1.00" length="-1.00" nVehEntered="0"/>
    <interval begin="150.00" end="180.00" id="mainline_eval_4_1" nVehContrib="5" flow="600.00" occupancy="4.53" speed="18.39" harmonicMeanSpeed="18.38" length="5.00" nVehEntered="5"/>
    <interval begin="150.00" end="180.00" id="mainline_eval_4_2" nVehContrib="12" flow="1440.00" occupancy="14.24" speed="17.76" harmonicMeanSpeed="14.66" length="5.00" nVehEntered="13"/>
    <interval begin="150.00" end="180.00" id="mainline_eval_4_3" nVehContrib="14" flow="1680.00" occupancy="10.95" speed="21.32" harmonicMeanSpeed="21.31" length="5.00" nVehEntered="15"/>
    <interval begin="150.00" end="180.00" id="mainline_eval_5_0" nVehContrib="6" flow="720.00" occupancy="5.19" speed="19.28" harmonicMeanSpeed="19.27" length="5.00" nVehEntered="6"/>
    <interval begin="150.00" end="180.00" id="mainline_eval_5_1" nVehContrib="9" flow="1080.00" occupancy="7.69" speed="19.82" harmonicMeanSpeed="19.80" length="5.00" nVehEntered="10"/>
    <interval begin="150.00" end="180.00" id="mainline_eval_5_2" nVehContrib="14" flow="1680.00" occupancy="11.15" speed="20.95" harmonicMeanSpeed="20.94" length="5.00" nVehEntered="14"/>
    <interval begin="150.00" end="180.00" id="mainline_eval_6_0" nVehContrib="5" flow="600.00" occupancy="4.31" speed="19.38" harmonicMeanSpeed="19.34" length="5.00" nVehEntered="5"/>
    <interval begin="150.00" end="180.00" id="mainline_eval_6_1" nVehContrib="8" flow="960.00" occupancy="6.66" speed="20.07" harmonicMeanSpeed="20.02" length="5.00" nVehEntered="8"/>
    <interval begin="150.00" end="180.00" id="mainline_eval_6_2" nVehContrib="13" flow="1560.00" occupancy="10.59" speed="21.41" harmonicMeanSpeed="21.40" length="5.00" nVehEntered="14"/>
    <interval begin="180.00" end="210.00" id="mainline_eval_0_0" nVehContrib="11" flow="1320.00" occupancy="13.34" speed="13.91" harmonicMeanSpeed="13.75" length="5.00" nVehEntered="11"/>
    <interval begin="180.00" end="210.00" id="mainline_eval_0_1" nVehContrib="12" flow="1440.00" occupancy="15.76" speed="12.75" harmonicMeanSpeed="12.69" length="5.00" nVehEntered="12"/>
    <interval begin="180.00" end="210.00" id="mainline_eval_0_2" nVehContrib="12" flow="1440.00" occupancy="15.93" speed="12.77" harmonicMeanSpeed="12.56" length="5.00" nVehEntered="12"/>
    <interval begin="180.00" end="210.00" id="mainline_eval_1_0" nVehContrib="9" flow="1080.00" occupancy="8.93" speed="16.86" harmonicMeanSpeed="16.79" length="5.00" nVehEntered="9"/>
    <interval begin="180.00" end="210.00" id="mainline_eval_1_1" nVehContrib="11" flow="1320.00" occupancy="10.39" speed="17.70" harmonicMeanSpeed="17.64" length="5.00" nVehEntered="11"/>
    <interval begin="180.00" end="210.00" id="mainline_eval_1_2" nVehContrib="13" flow="1560.00" occupancy="11.34" speed="19.12" harmonicMeanSpeed="19.11" length="5.00" nVehEntered="13"/>
    <interval begin="180.00" end="210.00" id="mainline_eval_2_0" nVehContrib="4" flow="480.00" occupancy="3.80" speed="17.70" harmonicMeanSpeed="17.53" length="5.00" nVehEntered="4"/>
    <interval begin="180.00" end="210.00" id="mainline_eval_2_1" nVehContrib="9" flow="1080.00" occupancy="8.01" speed="18.80" harmonicMeanSpeed="18.72" length="5.00" nVehEntered="9"/>
    <interval begin="180.00" end="210.00" id="mainline_eval_2_2" nVehContrib="13" flow="1560.00" occupancy="10.98" speed="19.82" harmonicMeanSpeed="19.73" length="5.00" nVehEntered="13"/>
    <interval begin="180.00" end="210.00" id="mainline_eval_3_0" nVehContrib="0" flow="0.00" occupancy="0.00" speed="-1.00" harmonicMeanSpeed="-1.00" length="-1.00" nVehEntered="0"/>
    <interval begin="180.00" end="210.00" id="mainline_eval_3_1" nVehContrib="8" flow="960.00" occupancy="7.02" speed="17.15" harmonicMeanSpeed="16.92" length="5.00" nVehEntered="8"/>
    <interval begin="180.00" end="210.00" id="mainline_eval_3_2" nVehContrib="8" flow="960.00" occupancy="9.89" speed="17.33" harmonicMeanSpeed="13.49" length="5.00" nVehEntered="8"/>
    <interval begin="180.00" end="210.00" id="mainline_eval_3_3" nVehContrib="12" flow="1440.00" occupancy="9.99" speed="20.10" harmonicMeanSpeed="20.02" length="5.00" nVehEntered="12"/>
    <interval begin="180.00" end="210.00" id="mainline_eval_4_0" nVehContrib="0" flow="0.00" occupancy="0.00" speed="-1.00" harmonicMeanSpeed="-1.00" length="-1.00" nVehEntered="0"/>
    <interval begin="180.00" end="210.00" id="mainline_eval_4_1" nVehContrib="6" flow="720.00" occupancy="5.61" speed="17.88" harmonicMeanSpeed="17.83" length="5.00" nVehEntered="7"/>
    <interval begin="180.00" end="210.00" id="mainline_eval_4_2" nVehContrib="10" flow="1200.00" occupancy="11.36" speed="17.67" harmonicMeanSpeed="13.94" length="5.00" nVehEntered="9"/>
    <interval begin="180.00" end="210.00" id="mainline_eval_4_3" nVehContrib="12" flow="1440.00" occupancy="9.88" speed="20.33" harmonicMeanSpeed="20.25" length="5.00" nVehEntered="12"/>
    <interval begin="180.00" end="210.00" id="mainline_eval_5_0" nVehContrib="4" flow="480.00" occupancy="3.58" speed="18.76" harmonicMeanSpeed="18.63" length="5.00" nVehEntered="4"/>