<?xml version="1.0" encoding="UTF-8"?>

<!-- generated on 08/01/19 22:59:53 by Eclipse SUMO Version 1.2.0
<configuration xmlns:xsi="http://www.w3.org/2001/XMLSchema-instance" xsi:noNamespaceSchemaLocation="http://sumo.dlr.de/xsd/sumoConfiguration.xsd">

    <input>
        <net-file value="./Project/ramp.net.xml"/>
        <route-files value="./Project/ramp.rou.xml"/>
        <additional-files value="./Project/ramp.add.xml"/>
    </input>

    <output>
        <netstate-dump value="./Project/Output/Traj/traj_nn_20.xml"/>
    </output>

    <time>
        <begin value="0"/>
        <end value="9300"/>
    </time>

    <processing>
        <emergencydecel.warning-threshold value="1.2"/>
    </processing>

    <report>
        <verbose value="true"/>
        <no-step-log value="true"/>
    </report>

    <traci_server>
        <remote-port value="55898"/>
    </traci_server>

    <random_number>
        <seed value="27851656"/>
    </random_number>

    <gui_only>
        <gui-settings-file value="./Project/jiaoke.xml"/>
        <quit-on-end value="true"/>
        <start value="true"/>
    </gui_only>

</configuration>
-->

<e3Detector xmlns:xsi="http://www.w3.org/2001/XMLSchema-instance" xsi:noNamespaceSchemaLocation="http://sumo.dlr.de/xsd/det_e3_file.xsd">
   <interval begin="0.00" end="60.00" id="multi_eval" meanTravelTime="-1.00" meanOverlapTravelTime="-1.00" meanSpeed="-1.00" meanHaltsPerVehicle="-1.00" meanTimeLoss="-1.00" vehicleSum="0" meanSpeedWithin="19.15" meanHaltsPerVehicleWithin="0.00" meanDurationWithin="18.41" vehicleSumWithin="39" meanIntervalSpeedWithin="19.15" meanIntervalHaltsPerVehicleWithin="0.00" meanIntervalDurationWithin="18.41" meanTimeLossWithin="1.29"/>
   <interval begin="60.00" end="120.00" id="multi_eval" meanTravelTime="-1.00" meanOverlapTravelTime="-1.00" meanSpeed="-1.00" meanHaltsPerVehicle="-1.00" meanTimeLoss="-1.00" vehicleSum="0" meanSpeedWithin="18.04" meanHaltsPerVehicleWithin="0.00" meanDurationWithin="46.51" vehicleSumWithin="112" meanIntervalSpeedWithin="18.02" meanIntervalHaltsPerVehicleWithin="0.00" meanIntervalDurationWithin="40.09" meanTimeLossWithin="4.23"/>
   <interval begin="120.00" end="180.00" id="multi_eval" meanTravelTime="123.26" meanOverlapTravelTime="123.50" meanSpeed="19.15" meanHaltsPerVehicle="0.00" meanTimeLoss="10.25" vehicleSum="36" meanSpeedWithin="17.91" meanHaltsPerVehicleWithin="0.00" meanDurationWithin="60.77" vehicleSumWithin="154" meanIntervalSpeedWithin="17.96" meanIntervalHaltsPerVehicleWithin="0.00" meanIntervalDurationWithin="45.54" meanTimeLossWithin="5.45"/>
   <interval begin="180.00" end="240.00" id="multi_eval" meanTravelTime="130.92" meanOverlapTravelTime="131.17" meanSpeed="17.99" meanHaltsPerVehicle="0.00" meanTimeLoss="15.05" vehicleSum="57" meanSpeedWithin="17.60" meanHaltsPerVehicleWithin="0.00" meanDurationWithin="68.51" vehicleSumWithin="175" meanIntervalSpeedWithin="17.55" meanIntervalHaltsPerVehicleWithin="0.00" meanIntervalDurationWithin="46.88" meanTimeLossWithin="6.52"/>
   <interval begin="240.00" end="300.00" id="multi_eval" meanTravelTime="132.46" meanOverlapTravelTime="132.71" meanSpeed="18.01" meanHaltsPerVehicle="0.00" meanTimeLoss="18.63" vehicleSum="84" meanSpeedWithin="17.25" meanHaltsPerVehicleWithin="0.00" meanDurationWithin="66.12" vehicleSumWithin="167" meanIntervalSpeedWithin="17.28" meanIntervalHaltsPerVehicleWithin="0.00" meanIntervalDurationWithin="46.67" meanTimeLossWithin="6.79"/>
   <interval begin="300.00" end="360.00" id="multi_eval" meanTravelTime="134.30" meanOverlapTravelTime="134.56" meanSpeed="17.68" meanHaltsPerVehicle="0.01" meanTimeLoss="18.54" vehicleSum="71" meanSpeedWithin="17.30" meanHaltsPerVehicleWithin="0.00" meanDurationWithin="67.66" vehicleSumWithin="177" meanIntervalSpeedWithin="17.40" meanIntervalHaltsPerVehicleWithin="0.00" meanIntervalDurationWithin="46.69" meanTimeLossWithin="6.59"/>
   <interval begin="360.00" end="420.00" id="multi_eval" meanTravelTime="133.68" meanOverlapTravelTime="133.93" meanSpeed="17.45" meanHaltsPerVehicle="0.00" meanTimeLoss="18.25" vehicleSum="78" meanSpeedWithin="17.22" meanHaltsPerVehicleWithin="0.00" meanDurationWithin="69.11" vehicleSumWithin="178" meanIntervalSpeedWithin="17.22" meanIntervalHaltsPerVehicleWithin="0.00" meanIntervalDurationWithin="47.48" meanTimeLossWithin="7.83"/>
   <interval begin="420.00" end="480.00" id="multi_eval" meanTravelTime="138.36" meanOverlapTravelTime="138.62" meanSpeed="17.39" meanHaltsPerVehicle="0.00" meanTimeLoss="24.21" vehicleSum="74" meanSpeedWithin="17.40" meanHaltsPerVehicleWithin="0.00" meanDurationWithin="71.06" vehicleSumWithin="183" meanIntervalSpeedWithin="17.40" meanIntervalHaltsPerVehicleWithin="0.00" meanIntervalDurationWithin="47.69" meanTimeLossWithin="7.09"/>
   <interval begin="480.00" end="540.00" id="multi_eval" meanTravelTime="136.81" meanOverlapTravelTime="137.06" meanSpeed="16.94" meanHaltsPerVehicle="0.00" meanTimeLoss="23.28" vehicleSum="84" meanSpeedWithin="17.18" meanHaltsPerVehicleWithin="0.00" meanDurationWithin="69.05" vehicleSumWithin="179" meanIntervalSpeedWithin="17.09" meanIntervalHaltsPerVehicleWithin="0.00" meanIntervalDurationWithin="47.00" meanTimeLossWithin="7.26"/>
   <interval begin="540.00" end="600.00" id="multi_eval" meanTravelTime="134.30" meanOverlapTravelTime="134.55" meanSpeed="17.80" meanHaltsPerVehicle="0.00" meanTimeLoss="18.53" vehicleSum="78" meanSpeedWithin="17.06" meanHaltsPerVehicleWithin="0.00" meanDurationWithin="68.91" vehicleSumWithin="182" meanIntervalSpeedWithin="17.16" meanIntervalHaltsPerVehicleWithin="0.00" meanIntervalDurationWithin="47.19" meanTimeLossWithin="7.37"/>
   <interval begin="600.00" end="660.00" id="multi_eval" meanTravelTime="135.75" meanOverlapTravelTime="136.01" meanSpeed="17.16" meanHaltsPerVehicle="0.00" meanTimeLoss="20.20" vehicleSum="76" meanSpeedWithin="17.45" meanHaltsPerVehicleWithin="0.00" meanDurationWithin="70.94" vehicleSumWithin="186" meanIntervalSpeedWithin="17.47" meanIntervalHaltsPerVehicleWithin="0.00" meanIntervalDurationWithin="47.61" meanTimeLossWithin="7.51"/>
   <interval begin="660.00" end="720.00" id="multi_eval" meanTravelTime="137.27" meanOverlapTravelTime="137.52" meanSpeed="17.34" meanHaltsPerVehicle="0.00" meanTimeLoss="22.61" vehicleSum="85" meanSpeedWithin="17.38" meanHaltsPerVehicleWithin="0.00" meanDurationWithin="68.47" vehicleSumWithin="183" meanIntervalSpeedWithin="17.36" meanIntervalHaltsPerVehicleWithin="0.00" meanIntervalDurationWithin="46.83" meanTimeLossWithin="6.90"/>
   <interval begin="720.00" end="780.00" id="multi_eval" meanTravelTime="133.61" meanOverlapTravelTime="133.86" meanSpeed="17.76" meanHaltsPerVehicle="0.00" meanTimeLoss="19.71" vehicleSum="83" meanSpeedWithin="17.49" meanHaltsPerVehicleWithin="0.00" meanDurationWithin="68.58" vehicleSumWithin="177" meanIntervalSpeedWithin="17.51" meanIntervalHaltsPerVehicleWithin="0.00" meanIntervalDurationWithin="47.25" meanTimeLossWithin="7.09"/>
   <interval begin="780.00" end="840.00" id="multi_eval" meanTravelTime="136.49" meanOverlapTravelTime="136.75" meanSpeed="17.25" meanHaltsPerVehicle="0.00" meanTimeLoss="21.16" vehicleSum="74" meanSpeedWithin="17.59" meanHaltsPerVehicleWithin="0.00" meanDurationWithin="71.05" vehicleSumWithin="179" meanIntervalSpeedWithin="17.57" meanIntervalHaltsPerVehicleWithin="0.00" meanIntervalDurationWithin="47.50" meanTimeLossWithin="6.80"/>
   <interval begin="840.00" end="900.00" id="multi_eval" meanTravelTime="134.69" meanOverlapTravelTime="134.95" meanSpeed="17.65" meanHaltsPerVehicle="0.00" meanTimeLoss="21.10" vehicleSum="90" meanSpeedWithin="17.94" meanHaltsPerVehicleWithin="0.00" meanDurationWithin="65.53" vehicleSumWithin="168" meanIntervalSpeedWithin="18.00" meanIntervalHaltsPerVehicleWithin="0.00" meanIntervalDurationWithin="46.50" meanTimeLossWithin="5.66"/>
   <interval begin="900.00" end="960.00" id="multi_eval" meanTravelTime="131.70" meanOverlapTravelTime="131.95" meanSpeed="18.14" meanHaltsPerVehicle="0.01" meanTimeLoss="16.96" vehicleSum="71" meanSpeedWithin="17.70" meanHaltsPerVehicleWithin="0.00" meanDurationWithin="69.16" vehicleSumWithin="172" meanIntervalSpeedWithin="17.69" meanIntervalHaltsPerVehicleWithin="0.00" meanIntervalDurationWithin="47.36" meanTimeLossWithin="6.05"/>
   <interval begin="960.00" end="1020.00" id="multi_eval" meanTravelTime="131.66" meanOverlapTravelTime="131.91" meanSpeed="17.70" meanHaltsPerVehicle="0.00" meanTimeLoss="17.17" vehicleSum="81" meanSpeedWithin="17.29" meanHaltsPerVehicleWithin="0.00" meanDurationWithin="65.91" vehicleSumWithin="175" meanIntervalSpeedWithin="17.33" meanIntervalHaltsPerVehicleWithin="0.00" meanIntervalDurationWithin="46.40" meanTimeLossWithin="6.52"/>
   <interval begin="1020.00" end="1080.00" id="multi_eval" meanTravelTime="129.15" meanOverlapTravelTime="129.40" meanSpeed="18.10" meanHaltsPerVehicle="0.00" meanTimeLoss="15.09" vehicleSum="78" meanSpeedWithin="17.14" meanHaltsPerVehicleWithin="0.00" meanDurationWithin="67.75" vehicleSumWithin="173" meanIntervalSpeedWithin="17.28" meanIntervalHaltsPerVehicleWithin="0.00" meanIntervalDurationWithin="47.18" meanTimeLossWithin="7.48"/>
   <interval begin="1080.00" end="1140.00" id="multi_eval" meanTravelTime="135.91" meanOverlapTravelTime="136.17" meanSpeed="17.48" meanHaltsPerVehicle="0.00" meanTimeLoss="21.69" vehicleSum="68" meanSpeedWithin="16.98" meanHaltsPerVehicleWithin="0.00" meanDurationWithin="72.19" vehicleSumWithin="183" meanIntervalSpeedWithin="16.97" meanIntervalHaltsPerVehicleWithin="0.00" meanIntervalDurationWithin="47.95" meanTimeLossWithin="7.55"/>
   <interval begin="1140.00" end="1200.00" id="multi_eval" meanTravelTime="141.18" meanOverlapTravelTime="141.45" meanSpeed="16.99" meanHaltsPerVehicle="0.01" meanTimeLoss="25.27" vehicleSum="81" meanSpeedWithin="17.27" meanHaltsPerVehicleWithin="0.00" meanDurationWithin="71.79" vehicleSumWithin="177" meanIntervalSpeedWithin="17.24" meanIntervalHaltsPerVehicleWithin="0.00" meanIntervalDurationWithin="47.85" meanTimeLossWithin="7.07"/>
   <interval begin="1200.00" end="1260.00" id="multi_eval" meanTravelTime="135.80" meanOverlapTravelTime="136.06" meanSpeed="17.18" meanHaltsPerVehicle="0.00" meanTimeLoss="20.16" vehicleSum="86" meanSpeedWithin="17.67" meanHaltsPerVehicleWithin="0.00" meanDurationWithin="67.20" vehicleSumWithin="168" meanIntervalSpeedWithin="17.78" meanIntervalHaltsPerVehicleWithin="0.00" meanIntervalDurationWithin="46.50" meanTimeLossWithin="5.76"/>
   <interval begin="1260.00" end="1320.00" id="multi_eval" meanTravelTime="129.84" meanOverlapTravelTime="130.09" meanSpeed="18.11" meanHaltsPerVehicle="0.00" meanTimeLoss="15.95" vehicleSum="79" meanSpeedWithin="17.54" meanHaltsPerVehicleWithin="0.00" meanDurationWithin="64.81" vehicleSumWithin="170" meanIntervalSpeedWithin="17.60" meanIntervalHaltsPerVehicleWithin="0.00" meanIntervalDurationWithin="46.27" meanTimeLossWithin="6.24"/>
   <interval begin="1320.00" end="1380.00" id="multi_eval" meanTravelTime="133.36" meanOverlapTravelTime="133.62" meanSpeed="17.63" meanHaltsPerVehicle="0.00" meanTimeLoss="18.33" vehicleSum="71" meanSpeedWithin="17.53" meanHaltsPerVehicleWithin="0.01" meanDurationWithin="69.11" vehicleSumWithin="175" meanIntervalSpeedWithin="17.51" meanIntervalHaltsPerVehicleWithin="0.01" meanIntervalDurationWithin="47.50" meanTimeLossWithin="6.93"/>
   <interval begin="1380.00" end="1440.00" id="multi_eval" meanTravelTime="132.48" meanOverlapTravelTime="132.72" meanSpeed="17.72" meanHaltsPerVehicle="0.01" meanTimeLoss="18.87" vehicleSum="80" meanSpeedWithin="16.67" meanHaltsPerVehicleWithin="0.00" meanDurationWithin="69.03" vehicleSumWithin="170" meanIntervalSpeedWithin="16.64" meanIntervalHaltsPerVehicleWithin="0.00" meanIntervalDurationWithin="47.38" meanTimeLossWithin="6.51"/>
   <interval begin="1440.00" end="1500.00" id="multi_eval" meanTravelTime="134.00" meanOverlapTravelTime="134.25" meanSpeed="17.32" meanHaltsPerVehicle="0.00" meanTimeLoss="19.13" vehicleSum="77" meanSpeedWithin="16.25" meanHaltsPerVehicleWithin="0.00" meanDurationWithin="68.74" vehicleSumWithin="168" meanIntervalSpeedWithin="16.28" meanIntervalHaltsPerVehicleWithin="0.00" meanIntervalDurationWithin="47.20" meanTimeLossWithin="7.47"/>
   <interval begin="1500.00" end="1560.00" id="multi_eval" meanTravelTime="141.69" meanOverlapTravelTime="141.96" meanSpeed="16.51" meanHaltsPerVehicle="0.00" meanTimeLoss="20.34" vehicleSum="60" meanSpeedWithin="16.37" meanHaltsPerVehicleWithin="0.00" meanDurationWithin="75.06" vehicleSumWithin="183" meanIntervalSpeedWithin="16.38" meanIntervalHaltsPerVehicleWithin="0.00" meanIntervalDurationWithin="48.46" meanTimeLossWithin="7.94"/>
   <interval begin="1560.00" end="1620.00" id="multi_eval" meanTravelTime="143.41" meanOverlapTravelTime="143.67" meanSpeed="16.28" meanHaltsPerVehicle="0.00" meanTimeLoss="24.71" vehicleSum="78" meanSpeedWithin="16.55" meanHaltsPerVehicleWithin="0.00" meanDurationWithin="72.68" vehicleSumWithin="185" meanIntervalSpeedWithin="16.58" meanIntervalHaltsPerVehicleWithin="0.00" meanIntervalDurationWithin="47.61" meanTimeLossWithin="7.28"/>
   <interval begin="1620.00" end="1680.00" id="multi_eval" meanTravelTime="142.43" meanOverlapTravelTime="142.70" meanSpeed="16.50" meanHaltsPerVehicle="0.00" meanTimeLoss="23.73" vehicleSum="83" meanSpeedWithin="16.62" meanHaltsPerVehicleWithin="0.00" meanDurationWithin="69.89" vehicleSumWithin="180" meanIntervalSpeedWithin="16.67" meanIntervalHaltsPerVehicleWithin="0.00" meanIntervalDurationWithin="47.34" meanTimeLossWithin="6.73"/>
   <interval begin="1680.00" end="1740.00" id="multi_eval" meanTravelTime="138.29" meanOverlapTravelTime="138.55" meanSpeed="16.95" meanHaltsPerVehicle="0.00" meanTimeLoss="19.28" vehicleSum="77" meanSpeedWithin="16.53" meanHaltsPerVehicleWithin="0.01" meanDurationWithin="70.39" vehicleSumWithin="182" meanIntervalSpeedWithin="16.55" meanIntervalHaltsPerVehicleWithin="0.01" meanIntervalDurationWithin="47.34" meanTimeLossWithin="7.57"/>
   <interval begin="1740.00" end="1800.00" id="multi_eval" meanTravelTime="138.09" meanOverlapTravelTime="138.35" meanSpeed="16.88" meanHaltsPerVehicle="0.01" meanTimeLoss="20.93" vehicleSum="77" meanSpeedWithin="16.96" meanHaltsPerVehicleWithin="0.01" meanDurationWithin="71.36" vehicleSumWithin="184" meanIntervalSpeedWithin="17.04" meanIntervalHaltsPerVehicleWithin="0.01" meanIntervalDurationWithin="47.82" meanTimeLossWithin="8.16"/>
   <interval begin="1800.00" end="1860.00" id="multi_eval" meanTravelTime="139.78" meanOverlapTravelTime="140.03" meanSpeed="17.01" meanHaltsPerVehicle="0.01" meanTimeLoss="24.16" vehicleSum="78" meanSpeedWithin="17.25" meanHaltsPerVehicleWithin="0.01" meanDurationWithin="72.36" vehicleSumWithin="183" meanIntervalSpeedWithin="17.22" meanIntervalHaltsPerVehicleWithin="0.01" meanIntervalDurationWithin="48.00" meanTimeLossWithin="7.50"/>
   <interval begin="1860.00" end="1920.00" id="multi_eval" meanTravelTime="137.46" meanOverlapTravelTime="137.71" meanSpeed="17.01" meanHaltsPerVehicle="0.07" meanTimeLoss="24.04" vehicleSum="85" meanSpeedWithin="17.22" meanHaltsPerVehicleWithin="0.00" meanDurationWithin="69.05" vehicleSumWithin="180" meanIntervalSpeedWithin="17.09" meanIntervalHaltsPerVehicleWithin="0.00" meanIntervalDurationWithin="47.05" meanTimeLossWithin="7.99"/>
   <interval begin="1920.00" end="1980.00" id="multi_eval" meanTravelTime="135.73" meanOverlapTravelTime="135.97" meanSpeed="17.33" meanHaltsPerVehicle="0.00" meanTimeLoss="22.68" vehicleSum="82" meanSpeedWithin="17.21" meanHaltsPerVehicleWithin="0.00" meanDurationWithin="68.33" vehicleSumWithin="176" meanIntervalSpeedWithin="17.29" meanIntervalHaltsPerVehicleWithin="0.00" meanIntervalDurationWithin="47.37" meanTimeLossWithin="6.57"/>
   <interval begin="1980.00" end="2040.00" id="multi_eval" meanTravelTime="134.73" meanOverlapTravelTime="134.99" meanSpeed="17.43" meanHaltsPerVehicle="0.00" meanTimeLoss="19.87" vehicleSum="77" meanSpeedWithin="17.27" meanHaltsPerVehicleWithin="0.00" meanDurationWithin="70.10" vehicleSumWithin="176" meanIntervalSpeedWithin="17.24" meanIntervalHaltsPerVehicleWithin="0.00" meanIntervalDurationWithin="47.47" meanTimeLossWithin="6.87"/>
   <interval begin="2040.00" end="2100.00" id="multi_eval" meanTravelTime="135.88" meanOverlapTravelTime="136.14" meanSpeed="17.40" meanHaltsPerVehicle="0.00" meanTimeLoss="19.79" vehicleSum="76" meanSpeedWithin="17.35" meanHaltsPerVehicleWithin="0.00" meanDurationWithin="71.44" vehicleSumWithin="175" meanIntervalSpeedWithin="17.19" meanIntervalHaltsPerVehicleWithin="0.00" meanIntervalDurationWithin="48.32" meanTimeLossWithin="7.79"/>
   <interval begin="2100.00" end="2160.00" id="multi_eval" meanTravelTime="138.22" meanOverlapTravelTime="138.48" meanSpeed="16.94" meanHaltsPerVehicle="0.00" meanTimeLoss="23.31" vehicleSum="77" meanSpeedWithin="17.52" meanHaltsPerVehicleWithin="0.00" meanDurationWithin="70.87" vehicleSumWithin="175" meanIntervalSpeedWithin="17.37" meanIntervalHaltsPerVehicleWithin="0.00" meanIntervalDurationWithin="47.48" meanTimeLossWithin="7.13"/>
   <interval begin="2160.00" end="2220.00" id="multi_eval" meanTravelTime="132.04" meanOverlapTravelTime="132.29" meanSpeed="17.62" meanHaltsPerVehicle="0.01" meanTimeLoss="18.71" vehicleSum="85" meanSpeedWithin="17.60" meanHaltsPerVehicleWithin="0.00" meanDurationWithin="67.24" vehicleSumWithin="170" meanIntervalSpeedWithin="17.64" meanIntervalHaltsPerVehicleWithin="0.00" meanIntervalDurationWithin="46.65" meanTimeLossWithin="6.20"/>
   <interval begin="2220.00" end="2280.00" id="multi_eval" meanTravelTime="131.74" meanOverlapTravelTime="131.99" meanSpeed="18.21" meanHaltsPerVehicle="0.00" meanTimeLoss="17.48" vehicleSum="75" meanSpeedWithin="17.10" meanHaltsPerVehicleWithin="0.01" meanDurationWithin="66.15" vehicleSumWithin="179" meanIntervalSpeedWithin="17.11" meanIntervalHaltsPerVehicleWithin="0.01" meanIntervalDurationWithin="46.27" meanTimeLossWithin="6.80"/>
   <interval begin="2280.00" end="2340.00" id="multi_eval" meanTravelTime="132.72" meanOverlapTravelTime="132.97" meanSpeed="17.36" meanHaltsPerVehicle="0.01" meanTimeLoss="18.45" vehicleSum="80" meanSpeedWithin="17.04" meanHaltsPerVehicleWithin="0.00" meanDurationWithin="66.98" vehicleSumWithin="177" meanIntervalSpeedWithin="17.15" meanIntervalHaltsPerVehicleWithin="0.00" meanIntervalDurationWithin="46.49" meanTimeLossWithin="6.85"/>
   <interval begin="2340.00" end="2400.00" id="multi_eval" meanTravelTime="134.57" meanOverlapTravelTime="134.82" meanSpeed="17.37" meanHaltsPerVehicle="0.00" meanTimeLoss="20.35" vehicleSum="77" meanSpeedWithin="17.23" meanHaltsPerVehicleWithin="0.01" meanDurationWithin="68.93" vehicleSumWithin="179" meanIntervalSpeedWithin="17.24" meanIntervalHaltsPerVehicleWithin="0.01" meanIntervalDurationWithin="47.58" meanTimeLossWithin="7.22"/>
   <interval begin="2400.00" end="2460.00" id="multi_eval" meanTravelTime="135.77" meanOverlapTravelTime="136.03" meanSpeed="17.15" meanHaltsPerVehicle="0.01" meanTimeLoss="20.70" vehicleSum="78" meanSpeedWithin="17.35" meanHaltsPerVehicleWithin="0.00" meanDurationWithin="69.40" vehicleSumWithin="180" meanIntervalSpeedWithin="17.42" meanIntervalHaltsPerVehicleWithin="0.00" meanIntervalDurationWithin="46.66" meanTimeLossWithin="5.89"/>
   <interval begin="2460.00" end="2520.00" id="multi_eval" meanTravelTime="135.10" meanOverlapTravelTime="135.35" meanSpeed="17.64" meanHaltsPerVehicle="0.00" meanTimeLoss="19.78" vehicleSum="84" meanSpeedWithin="17.27" meanHaltsPerVehicleWithin="0.01" meanDurationWithin="67.09" vehicleSumWithin="176" meanIntervalSpeedWithin="17.18" meanIntervalHaltsPerVehicleWithin="0.01" meanIntervalDurationWithin="46.98" meanTimeLossWithin="6.73"/>
   <interval begin="2520.00" end="2580.00" id="multi_eval" meanTravelTime="132.97" meanOverlapTravelTime="133.22" meanSpeed="17.29" meanHaltsPerVehicle="0.03" meanTimeLoss="16.79" vehicleSum="72" meanSpeedWithin="17.57" meanHaltsPerVehicleWithin="0.00" meanDurationWithin="70.51" vehicleSumWithin="183" meanIntervalSpeedWithin="17.52" meanIntervalHaltsPerVehicleWithin="0.00" meanIntervalDurationWithin="47.38" meanTimeLossWithin="6.37"/>
   <interval begin="2580.00" end="2640.00" id="multi_eval" meanTravelTime="135.41" meanOverlapTravelTime="135.67" meanSpeed="17.65" meanHaltsPerVehicle="0.00" meanTimeLoss="20.57" vehicleSum="85" meanSpeedWithin="16.86" meanHaltsPerVehicleWithin="0.03" meanDurationWithin="68.05" vehicleSumWithin="178" meanIntervalSpeedWithin="16.69" meanIntervalHaltsPerVehicleWithin="0.03" meanIntervalDurationWithin="46.62" meanTimeLossWithin="7.84"/>
   <interval begin="2640.00" end="2700.00" id="multi_eval" meanTravelTime="137.25" meanOverlapTravelTime="137.50" meanSpeed="17.08" meanHaltsPerVehicle="0.10" meanTimeLoss="23.48" vehicleSum="70" meanSpeedWithin="16.65" meanHaltsPerVehicleWithin="0.00" meanDurationWithin="71.25" vehicleSumWithin="190" meanIntervalSpeedWithin="16.52" meanIntervalHaltsPerVehicleWithin="0.00" meanIntervalDurationWithin="47.64" meanTimeLossWithin="8.98"/>
   <interval begin="2700.00" end="2760.00" id="multi_eval" meanTravelTime="141.40" meanOverlapTravelTime="141.67" meanSpeed="16.39" meanHaltsPerVehicle="0.00" meanTimeLoss="26.77" vehicleSum="82" meanSpeedWithin="17.28" meanHaltsPerVehicleWithin="0.00" meanDurationWithin="70.59" vehicleSumWithin="191" meanIntervalSpeedWithin="17.36" meanIntervalHaltsPerVehicleWithin="0.00" meanIntervalDurationWithin="47.45" meanTimeLossWithin="7.02"/>
   <interval begin="2760.00" end="2820.00" id="multi_eval" meanTravelTime="136.62" meanOverlapTravelTime="136.87" meanSpeed="17.18" meanHaltsPerVehicle="0.00" meanTimeLoss="22.86" vehicleSum="89" meanSpeedWithin="17.19" meanHaltsPerVehicleWithin="0.01" meanDurationWithin="69.08" vehicleSumWithin="181" meanIntervalSpeedWithin="17.13" meanIntervalHaltsPerVehicleWithin="0.01" meanIntervalDurationWithin="47.35" meanTimeLossWithin="7.28"/>
   <interval begin="2820.00" end="2880.00" id="multi_eval" meanTravelTime="136.34" meanOverlapTravelTime="136.58" meanSpeed="17.41" meanHaltsPerVehicle="0.05" meanTimeLoss="22.95" vehicleSum="78" meanSpeedWithin="17.10" meanHaltsPerVehicleWithin="0.00" meanDurationWithin="69.85" vehicleSumWithin="186" meanIntervalSpeedWithin="17.07" meanIntervalHaltsPerVehicleWithin="0.00" meanIntervalDurationWithin="47.35" meanTimeLossWithin="7.38"/>
   <interval begin="2880.00" end="2940.00" id="multi_eval" meanTravelTime="136.09" meanOverlapTravelTime="136.35" meanSpeed="17.17" meanHaltsPerVehicle="0.00" meanTimeLoss="21.98" vehicleSum="85" meanSpeedWithin="17.23" meanHaltsPerVehicleWithin="0.00" meanDurationWithin="69.33" vehicleSumWithin="176" meanIntervalSpeedWithin="17.35" meanIntervalHaltsPerVehicleWithin="0.00" meanIntervalDurationWithin="47.14" meanTimeLossWithin="5.81"/>
   <interval begin="2940.00" end="3000.00" id="multi_eval" meanTravelTime="133.23" meanOverlapTravelTime="133.49" meanSpeed="17.42" meanHaltsPerVehicle="0.01" meanTimeLoss="19.02" vehicleSum="82" meanSpeedWithin="16.96" meanHaltsPerVehicleWithin="0.01" meanDurationWithin="66.35" vehicleSumWithin="179" meanIntervalSpeedWithin="16.88" meanIntervalHaltsPerVehicleWithin="0.01" meanIntervalDurationWithin="46.40" meanTimeLossWithin="7.26"/>
   <interval begin="3000.00" end="3060.00" id="multi_eval" meanTravelTime="132.54" meanOverlapTravelTime="132.80" meanSpeed="17.26" meanHaltsPerVehicle="0.03" meanTimeLoss="17.09" vehicleSum="77" meanSpeedWithin="17.20" meanHaltsPerVehicleWithin="0.00" meanDurationWithin="68.75" vehicleSumWithin="182" meanIntervalSpeedWithin="17.39" meanIntervalHaltsPerVehicleWithin="0.00" meanIntervalDurationWithin="47.42" meanTimeLossWithin="6.80"/>
   <interval begin="3060.00" end="3120.00" id="multi_eval" meanTravelTime="134.77" meanOverlapTravelTime="135.03" meanSpeed="17.52" meanHaltsPerVehicle="0.00" meanTimeLoss="21.07" vehicleSum="81" meanSpeedWithin="17.37" meanHaltsPerVehicleWithin="0.00" meanDurationWithin="70.48" vehicleSumWithin="179" meanIntervalSpeedWithin="17.48" meanIntervalHaltsPerVehicleWithin="0.00" meanIntervalDurationWithin="48.11" meanTimeLossWithin="6.60"/>
   <interval begin="3120.00" end="3180.00" id="multi_eval" meanTravelTime="134.19" meanOverlapTravelTime="134.45" meanSpeed="17.47" meanHaltsPerVehicle="0.00" meanTimeLoss="20.24" vehicleSum="85" meanSpeedWithin="17.00" meanHaltsPerVehicleWithin="0.00" meanDurationWithin="66.48" vehicleSumWithin="177" meanIntervalSpeedWithin="16.99" meanIntervalHaltsPerVehicleWithin="0.00" meanIntervalDurationWithin="45.92" meanTimeLossWithin="6.44"/>
   <interval begin="3180.00" end="3240.00" id="multi_eval" meanTravelTime="133.52" meanOverlapTravelTime="133.77" meanSpeed="17.33" meanHaltsPerVehicle="0.00" meanTimeLoss="19.43" vehicleSum="80" meanSpeedWithin="16.39" meanHaltsPerVehicleWithin="0.00" meanDurationWithin="65.61" vehicleSumWithin="178" meanIntervalSpeedWithin="16.41" meanIntervalHaltsPerVehicleWithin="0.00" meanIntervalDurationWithin="46.34" meanTimeLossWithin="7.09"/>
   <interval begin="3240.00" end="3300.00" id="multi_eval" meanTravelTime="134.43" meanOverlapTravelTime="134.69" meanSpeed="17.44" meanHaltsPerVehicle="0.00" meanTimeLoss="18.08" vehicleSum="70" meanSpeedWithin="16.49" meanHaltsPerVehicleWithin="0.01" meanDurationWithin="70.44" vehicleSumWithin="188" meanIntervalSpeedWithin="16.65" meanIntervalHaltsPerVehicleWithin="0.01" meanIntervalDurationWithin="47.51" meanTimeLossWithin="7.93"/>
   <interval begin="3300.00" end="3360.00" id="multi_eval" meanTravelTime="137.54" meanOverlapTravelTime="137.80" meanSpeed="16.40" meanHaltsPerVehicle="0.04" meanTimeLoss="21.62" vehicleSum="75" meanSpeedWithin="16.71" meanHaltsPerVehicleWithin="0.00" meanDurationWithin="72.97" vehicleSumWithin="196" meanIntervalSpeedWithin="16.70" meanIntervalHaltsPerVehicleWithin="0.00" meanIntervalDurationWithin="47.82" meanTimeLossWithin="8.83"/>
   <interval begin="3360.00" end="3420.00" id="multi_eval" meanTravelTime="143.17" meanOverlapTravelTime="143.44" meanSpeed="16.75" meanHaltsPerVehicle="0.01" meanTimeLoss="28.89" vehicleSum="83" meanSpeedWithin="16.27" meanHaltsPerVehicleWithin="0.00" meanDurationWithin="72.38" vehicleSumWithin="193" meanIntervalSpeedWithin="16.14" meanIntervalHaltsPerVehicleWithin="0.00" meanIntervalDurationWithin="47.37" meanTimeLossWithin="7.63"/>
   <interval begin="3420.00" end="3480.00" id="multi_eval" meanTravelTime="139.81" meanOverlapTravelTime="140.07" meanSpeed="16.49" meanHaltsPerVehicle="0.00" meanTimeLoss="24.24" vehicleSum="82" meanSpeedWithin="16.07" meanHaltsPerVehicleWithin="0.00" meanDurationWithin="72.15" vehicleSumWithin="190" meanIntervalSpeedWithin="16.05" meanIntervalHaltsPerVehicleWithin="0.00" meanIntervalDurationWithin="47.17" meanTimeLossWithin="7.81"/>
   <interval begin="3480.00" end="3540.00" id="multi_eval" meanTravelTime="142.80" meanOverlapTravelTime="143.06" meanSpeed="16.18" meanHaltsPerVehicle="0.00" meanTimeLoss="23.61" vehicleSum="75" meanSpeedWithin="15.84" meanHaltsPerVehicleWithin="0.00" meanDurationWithin="72.94" vehicleSumWithin="196" meanIntervalSpeedWithin="15.81" meanIntervalHaltsPerVehicleWithin="0.00" meanIntervalDurationWithin="47.69" meanTimeLossWithin="8.42"/>
   <interval begin="3540.00" end="3600.00" id="multi_eval" meanTravelTime="142.56" meanOverlapTravelTime="142.81" meanSpeed="15.96" meanHaltsPerVehicle="0.00" meanTimeLoss="25.54" vehicleSum="85" meanSpeedWithin="16.31" meanHaltsPerVehicleWithin="0.00" meanDurationWithin="71.02" vehicleSumWithin="194" meanIntervalSpeedWithin="16.47" meanIntervalHaltsPerVehicleWithin="0.00" meanIntervalDurationWithin="47.22" meanTimeLossWithin="8.18"/>
   <interval begin="3600.00" end="3660.00" id="multi_eval" meanTravelTime="141.81" meanOverlapTravelTime="142.07" meanSpeed="16.82" meanHaltsPerVehicle="0.00" meanTimeLoss="23.56" vehicleSum="80" meanSpeedWithin="16.50" meanHaltsPerVehicleWithin="0.00" meanDurationWithin="71.69" vehicleSumWithin="196" meanIntervalSpeedWithin="16.56" meanIntervalHaltsPerVehicleWithin="0.00" meanIntervalDurationWithin="47.49" meanTimeLossWithin="8.15"/>
   <interval begin="3660.00" end="3720.00" id="multi_eval" meanTravelTime="141.91" meanOverlapTravelTime="142.17" meanSpeed="16.21" meanHaltsPerVehicle="0.00" meanTimeLoss="27.08" vehicleSum="82" meanSpeedWithin="16.43" meanHaltsPerVehicleWithin="0.00" meanDurationWithin="71.57" vehicleSumWithin="196" meanIntervalSpeedWithin="16.36" meanIntervalHaltsPerVehicleWithin="0.00" meanIntervalDurationWithin="47.28" meanTimeLossWithin="8.13"/>
   <interval begin="3720.00" end="3780.00" id="multi_eval" meanTravelTime="143.05" meanOverlapTravelTime="143.31" meanSpeed="16.22" meanHaltsPerVehicle="0.00" meanTimeLoss="26.85" vehicleSum="84" meanSpeedWithin="16.15" meanHaltsPerVehicleWithin="0.00" meanDurationWithin="70.89" vehicleSumWithin="193" meanIntervalSpeedWithin="15.88" meanIntervalHaltsPerVehicleWithin="0.00" meanIntervalDurationWithin="47.03" meanTimeLossWithin="8.55"/>
   <interval begin="3780.00" end="3840.00" id="multi_eval" meanTravelTime="142.13" meanOverlapTravelTime="142.39" meanSpeed="16.35" meanHaltsPerVehicle="0.00" meanTimeLoss="24.60" vehicleSum="68" meanSpeedWithin="16.32" meanHaltsPerVehicleWithin="0.00" meanDurationWithin="75.77" vehicleSumWithin="206" meanIntervalSpeedWithin="16.27" meanIntervalHaltsPerVehicleWithin="0.00" meanIntervalDurationWithin="48.19" meanTimeLossWithin="8.27"/>
   <interval begin="3840.00" end="3900.00" id="multi_eval" meanTravelTime="146.72" meanOverlapTravelTime="146.97" meanSpeed="15.71" meanHaltsPerVehicle="0.01" meanTimeLoss="29.70" vehicleSum="86" meanSpeedWithin="16.52" meanHaltsPerVehicleWithin="0.03" meanDurationWithin="75.59" vehicleSumWithin="200" meanIntervalSpeedWithin="16.29" meanIntervalHaltsPerVehicleWithin="0.03" meanIntervalDurationWithin="48.66" meanTimeLossWithin="8.61"/>